LAMMPS data file. CGCMM style. atom_style molecular generated by VMD/TopoTools v1.7 on Mon Apr 16 14:16:39 EDT 2018
 4096 atoms
 2056 bonds
 0 angles
 0 dihedrals
 0 impropers
 2 atom types
 1 bond types
 0 angle types
 0 dihedral types
 0 improper types
 -0.500000 0.500000  xlo xhi
 -0.500000 0.500000  ylo yhi
 -0.500000 0.500000  zlo zhi

# Pair Coeffs
#
# 1  LI
# 2  S

# Bond Coeffs
#
# 1  

 Masses

 1 6.941000 # LI
 2 32.064999 # S

 Atoms # molecular

1 1 2 37.327000 11.231000 28.872000 # S UNL
2 1 2 38.709000 11.666000 30.283001 # S UNL
3 1 2 37.938000 13.167000 31.436001 # S UNL
4 1 2 38.811001 14.904000 30.770000 # S UNL
5 1 2 37.464001 15.815000 29.533001 # S UNL
6 1 2 38.057999 15.401000 27.621000 # S UNL
7 1 2 36.865002 13.883000 26.955000 # S UNL
8 1 2 37.951000 12.162000 27.135000 # S UNL
9 2 2 31.320000 3.464000 9.068000 # S UNL
10 2 2 31.322001 4.471000 10.822000 # S UNL
11 2 2 33.275002 4.825000 11.309000 # S UNL
12 2 2 33.780998 3.405000 12.706000 # S UNL
13 2 2 34.796001 1.932000 11.720000 # S UNL
14 2 2 33.466000 0.408000 11.422000 # S UNL
15 2 2 32.833000 0.556000 9.486000 # S UNL
16 2 2 31.009001 1.475000 9.535000 # S UNL
17 3 2 31.712999 2.752000 29.132000 # S UNL
18 3 2 29.856001 2.791000 29.931999 # S UNL
19 3 2 28.823999 4.278000 28.983000 # S UNL
20 3 2 28.855000 5.893000 30.253000 # S UNL
21 3 2 30.323999 7.148000 29.589001 # S UNL
22 3 2 31.945000 6.835000 30.792999 # S UNL
23 3 2 33.221001 5.626000 29.753000 # S UNL
24 3 2 32.948002 3.732000 30.468000 # S UNL
25 4 2 27.207001 36.229000 36.764000 # S UNL
26 4 2 26.590000 35.233002 38.411999 # S UNL
27 4 2 24.547001 35.191002 38.359001 # S UNL
28 4 2 23.914000 36.672001 39.636002 # S UNL
29 4 2 23.430000 38.287998 38.484001 # S UNL
30 4 2 25.007000 39.582001 38.608002 # S UNL
31 4 2 26.098000 39.339001 36.897999 # S UNL
32 4 2 27.683001 38.143002 37.380001 # S UNL
33 5 2 21.959000 24.238001 27.107000 # S UNL
34 5 2 20.101000 23.594000 27.577000 # S UNL
35 5 2 19.556000 24.540001 29.304001 # S UNL
36 5 2 19.858999 23.184000 30.818001 # S UNL
37 5 2 21.645000 23.653000 31.691999 # S UNL
38 5 2 23.020000 22.337000 30.947001 # S UNL
39 5 2 24.056000 23.334000 29.497000 # S UNL
40 5 2 23.264000 22.750999 27.705999 # S UNL
41 6 2 12.590000 26.899000 0.002000 # S UNL
42 6 2 14.158000 27.702000 0.996000 # S UNL
43 6 2 15.852000 27.134001 0.005000 # S UNL
44 6 2 16.635000 25.559999 1.069000 # S UNL
45 6 2 16.076000 23.849001 0.104000 # S UNL
46 6 2 14.493000 23.084000 1.147000 # S UNL
47 6 2 12.808000 23.603001 0.116000 # S UNL
48 6 2 12.014000 25.226000 1.070000 # S UNL
49 7 2 5.132000 16.160000 15.079000 # S UNL
50 7 2 3.630000 14.892000 15.556000 # S UNL
51 7 2 1.896000 15.736000 14.881000 # S UNL
52 7 2 1.006000 16.600000 16.518999 # S UNL
53 7 2 1.438000 18.596001 16.451000 # S UNL
54 7 2 2.966000 18.905001 17.773001 # S UNL
55 7 2 4.680000 19.023001 16.667999 # S UNL
56 7 2 5.591000 17.200001 16.806000 # S UNL
57 8 2 14.493000 10.815000 41.683998 # S UNL
58 8 2 16.224001 10.584000 40.665001 # S UNL
59 8 2 15.999000 11.539000 38.873001 # S UNL
60 8 2 15.582000 10.074000 37.493999 # S UNL
61 8 2 13.559000 10.082000 37.206001 # S UNL
62 8 2 12.809000 8.530000 38.304001 # S UNL
63 8 2 12.050000 9.340000 40.018002 # S UNL
64 8 2 13.450000 9.043000 41.476002 # S UNL
65 9 2 1.283000 16.148001 37.919998 # S UNL
66 9 2 0.003000 16.733999 39.372002 # S UNL
67 9 2 1.066000 17.893999 40.676998 # S UNL
68 9 2 1.524000 16.683001 42.272999 # S UNL
69 9 2 3.451000 16.056000 42.014000 # S UNL
70 9 2 3.348000 14.153000 41.272999 # S UNL
71 9 2 3.667000 14.292000 39.261002 # S UNL
72 9 2 1.830000 14.206000 38.369999 # S UNL
73 10 2 7.237000 33.820000 7.960000 # S UNL
74 10 2 9.002000 33.178001 7.209000 # S UNL
75 10 2 10.423000 33.521000 8.638000 # S UNL
76 10 2 11.390000 35.244999 8.077000 # S UNL
77 10 2 10.596000 36.764000 9.189000 # S UNL
78 10 2 9.269000 37.737999 7.977000 # S UNL
79 10 2 7.408000 37.076000 8.497000 # S UNL
80 10 2 6.879000 35.671001 7.113000 # S UNL
81 11 2 12.525000 22.992001 11.466000 # S UNL
82 11 2 11.965000 24.362000 12.844000 # S UNL
83 11 2 12.252000 26.205000 12.008000 # S UNL
84 11 2 14.025000 26.908001 12.772000 # S UNL
85 11 2 15.460000 26.575001 11.356000 # S UNL
86 11 2 16.476000 24.900999 11.941000 # S UNL
87 11 2 15.746000 23.354000 10.824000 # S UNL
88 11 2 14.415000 22.355000 12.008000 # S UNL
89 12 2 29.929001 36.651001 1.967000 # S UNL
90 12 2 28.747999 37.518002 0.573000 # S UNL
91 12 2 29.660999 39.257999 0.011000 # S UNL
92 12 2 28.698999 40.762001 1.029000 # S UNL
93 12 2 29.864000 41.234001 2.639000 # S UNL
94 12 2 29.021000 40.313999 4.257000 # S UNL
95 12 2 30.118999 38.627998 4.609000 # S UNL
96 12 2 29.073000 37.069000 3.802000 # S UNL
97 13 2 26.632000 10.844000 12.927000 # S UNL
98 13 2 26.287001 12.658000 13.752000 # S UNL
99 13 2 28.080000 13.636000 13.824000 # S UNL
100 13 2 28.754999 13.448000 15.756000 # S UNL
101 13 2 30.128000 11.934000 15.765000 # S UNL
102 13 2 29.167999 10.284000 16.496000 # S UNL
103 13 2 28.673000 9.133000 14.883000 # S UNL
104 13 2 26.701000 9.493000 14.489000 # S UNL
105 14 2 22.857000 1.049000 28.268999 # S UNL
106 14 2 24.046000 0.219000 26.860001 # S UNL
107 14 2 25.726000 1.377000 26.733999 # S UNL
108 14 2 25.469000 2.577000 25.086000 # S UNL
109 14 2 24.847000 4.401000 25.764999 # S UNL
110 14 2 22.823999 4.469000 25.478001 # S UNL
111 14 2 21.964001 4.076000 27.288000 # S UNL
112 14 2 21.402000 2.112000 27.256001 # S UNL
113 15 2 9.958000 29.907000 23.405001 # S UNL
114 15 2 11.647000 29.853001 22.295000 # S UNL
115 15 2 12.839000 31.382999 22.938999 # S UNL
116 15 2 12.599000 32.904999 21.580000 # S UNL
117 15 2 11.277000 34.231998 22.396000 # S UNL
118 15 2 9.468000 33.866001 21.516001 # S UNL
119 15 2 8.385000 32.759998 22.847000 # S UNL
120 15 2 8.516000 30.815001 22.235001 # S UNL
121 16 2 34.405998 38.912998 43.477001 # S UNL
122 16 2 35.380001 37.957001 44.970001 # S UNL
123 16 2 35.117001 35.952000 44.671001 # S UNL
124 16 2 33.624001 35.374001 45.959000 # S UNL
125 16 2 31.900000 35.272999 44.868000 # S UNL
126 16 2 30.860001 36.987999 45.264999 # S UNL
127 16 2 31.177000 38.243000 43.686001 # S UNL
128 16 2 32.615002 39.570000 44.271999 # S UNL
129 17 2 6.867000 24.840000 29.339001 # S UNL
130 17 2 6.113000 26.474001 30.261999 # S UNL
131 17 2 7.351000 28.038000 29.818001 # S UNL
132 17 2 8.559000 28.292999 31.461000 # S UNL
133 17 2 10.342000 27.389999 31.037001 # S UNL
134 17 2 10.318000 25.580999 31.989000 # S UNL
135 17 2 9.861000 24.181999 30.573999 # S UNL
136 17 2 7.873000 23.761000 30.787001 # S UNL
137 18 2 5.417000 27.841000 23.194000 # S UNL
138 18 2 3.857000 26.576000 22.954000 # S UNL
139 18 2 3.999000 25.799000 21.069000 # S UNL
140 18 2 2.665000 26.854000 19.916000 # S UNL
141 18 2 3.739000 28.261000 18.896000 # S UNL
142 18 2 3.473000 30.028000 19.889000 # S UNL
143 18 2 5.146000 30.318001 21.024000 # S UNL
144 18 2 4.669000 29.749001 22.927000 # S UNL
145 19 2 21.757999 17.368999 15.996000 # S UNL
146 19 2 21.955999 17.673000 14.006000 # S UNL
147 19 2 20.851999 16.233999 13.066000 # S UNL
148 19 2 22.187000 14.792000 12.465000 # S UNL
149 19 2 22.094999 13.282000 13.839000 # S UNL
150 19 2 23.709000 13.519000 15.071000 # S UNL
151 19 2 23.020000 14.415000 16.771999 # S UNL
152 19 2 23.476000 16.400000 16.615000 # S UNL
153 20 2 0.792000 5.999000 39.250999 # S UNL
154 20 2 0.466000 6.700000 37.382000 # S UNL
155 20 2 2.223000 7.517000 36.731998 # S UNL
156 20 2 2.033000 9.548000 36.980000 # S UNL
157 20 2 3.006000 10.033000 38.709999 # S UNL
158 20 2 1.566000 10.252000 40.145000 # S UNL
159 20 2 1.562000 8.526000 41.237000 # S UNL
160 20 2 0.002000 7.401000 40.548000 # S UNL
161 21 2 23.966000 13.206000 30.325001 # S UNL
162 21 2 25.292999 13.748000 31.750999 # S UNL
163 21 2 27.037001 12.759000 31.355000 # S UNL
164 21 2 27.086000 11.153000 32.636002 # S UNL
165 21 2 26.479000 9.519000 31.570000 # S UNL
166 21 2 24.525000 9.191000 32.070999 # S UNL
167 21 2 23.396000 9.958000 30.552999 # S UNL
168 21 2 22.733000 11.785000 31.181999 # S UNL
169 22 2 20.333000 13.487000 20.413000 # S UNL
170 22 2 21.860001 14.657000 21.038000 # S UNL
171 22 2 22.996000 13.532000 22.311001 # S UNL
172 22 2 22.454000 14.100000 24.209999 # S UNL
173 22 2 21.146000 12.692000 24.903999 # S UNL
174 22 2 19.274000 13.487000 24.698999 # S UNL
175 22 2 18.469999 12.658000 23.014000 # S UNL
176 22 2 18.680000 14.040000 21.524000 # S UNL
177 23 2 7.183000 35.023998 38.955002 # S UNL
178 23 2 7.600000 36.304001 37.445999 # S UNL
179 23 2 5.908000 36.467999 36.312000 # S UNL
180 23 2 6.195000 35.250000 34.681000 # S UNL
181 23 2 5.197000 33.507000 35.054001 # S UNL
182 23 2 6.603000 32.150002 35.655998 # S UNL
183 23 2 6.485000 32.050999 37.693001 # S UNL
184 23 2 8.005000 33.203999 38.424000 # S UNL
185 24 2 19.193001 23.250999 25.514000 # S UNL
186 24 2 20.250000 21.580000 25.089001 # S UNL
187 24 2 21.892000 21.582001 26.306999 # S UNL
188 24 2 23.455000 22.253000 25.155001 # S UNL
189 24 2 23.721001 24.229000 25.600000 # S UNL
190 24 2 22.840000 25.288000 24.090000 # S UNL
191 24 2 21.024000 25.905001 24.790001 # S UNL
192 24 2 19.634001 24.617001 24.027000 # S UNL
193 25 2 44.820000 20.240999 8.372000 # S UNL
194 25 2 45.958000 19.240000 9.711000 # S UNL
195 25 2 45.951000 17.273001 9.154000 # S UNL
196 25 2 44.589001 16.340000 10.378000 # S UNL
197 25 2 42.856998 16.150000 9.310000 # S UNL
198 25 2 41.616001 17.643999 9.945000 # S UNL
199 25 2 41.714001 19.122999 8.540000 # S UNL
200 25 2 42.985001 20.544001 9.274000 # S UNL
201 26 2 5.930000 5.472000 8.060000 # S UNL
202 26 2 4.253000 5.975000 7.047000 # S UNL
203 26 2 3.451000 4.243000 6.316000 # S UNL
204 26 2 4.007000 4.148000 4.340000 # S UNL
205 26 2 5.610000 2.885000 4.230000 # S UNL
206 26 2 7.272000 4.067000 4.096000 # S UNL
207 26 2 8.099000 4.124000 5.963000 # S UNL
208 26 2 7.519000 5.892000 6.807000 # S UNL
209 27 2 40.577000 4.388000 5.937000 # S UNL
210 27 2 42.367001 4.393000 6.877000 # S UNL
211 27 2 43.706001 3.491000 5.624000 # S UNL
212 27 2 43.921001 1.566000 6.310000 # S UNL
213 27 2 42.750000 0.377000 5.131000 # S UNL
214 27 2 41.042999 0.006000 6.194000 # S UNL
215 27 2 39.612000 1.264000 5.457000 # S UNL
216 27 2 39.487999 2.835000 6.757000 # S UNL
217 28 2 17.839001 32.474998 7.830000 # S UNL
218 28 2 17.565001 30.999001 6.475000 # S UNL
219 28 2 16.062000 29.808001 7.182000 # S UNL
220 28 2 16.979000 28.172001 8.023000 # S UNL
221 28 2 17.025000 28.487000 10.042000 # S UNL
222 28 2 18.917000 29.120001 10.488000 # S UNL
223 28 2 18.820000 31.149000 10.694000 # S UNL
224 28 2 19.500999 31.948999 8.941000 # S UNL
225 29 2 36.942001 12.420000 19.087999 # S UNL
226 29 2 35.501999 11.020000 18.853001 # S UNL
227 29 2 35.035000 10.320000 20.716000 # S UNL
228 29 2 36.028999 8.533000 20.920000 # S UNL
229 29 2 37.715000 8.909000 22.011000 # S UNL
230 29 2 39.259998 9.015000 20.676001 # S UNL
231 29 2 39.634998 11.000000 20.372999 # S UNL
232 29 2 38.733002 11.505000 18.611000 # S UNL
233 30 2 29.261000 19.287001 10.214000 # S UNL
234 30 2 30.749001 19.993999 11.386000 # S UNL
235 30 2 32.237999 20.638000 10.143000 # S UNL
236 30 2 33.650002 19.143999 10.124000 # S UNL
237 30 2 33.351002 18.062000 8.416000 # S UNL
238 30 2 32.334999 16.375999 8.967000 # S UNL
239 30 2 30.374001 16.694000 8.494000 # S UNL
240 30 2 29.433001 17.226999 10.227000 # S UNL
241 31 2 36.733002 20.222000 23.381001 # S UNL
242 31 2 37.953999 21.046000 21.996000 # S UNL
243 31 2 37.780998 23.073999 22.173000 # S UNL
244 31 2 36.512001 23.672001 20.672001 # S UNL
245 31 2 34.667999 23.924999 21.513000 # S UNL
246 31 2 33.584000 22.254999 21.049999 # S UNL
247 31 2 33.608002 21.063999 22.709000 # S UNL
248 31 2 35.025002 19.629000 22.379000 # S UNL
249 32 2 19.923000 17.184000 9.265000 # S UNL
250 32 2 20.193001 18.444000 10.823000 # S UNL
251 32 2 21.655001 19.764999 10.282000 # S UNL
252 32 2 23.382000 19.100000 11.175000 # S UNL
253 32 2 24.441000 18.087999 9.751000 # S UNL
254 32 2 24.120001 16.098000 10.094000 # S UNL
255 32 2 22.712999 15.492000 8.743000 # S UNL
256 32 2 20.929001 15.442000 9.738000 # S UNL
257 33 2 19.157000 26.191000 37.355999 # S UNL
258 33 2 18.808001 24.472000 36.349998 # S UNL
259 33 2 19.906000 23.009001 37.263000 # S UNL
260 33 2 21.584999 22.750999 36.106998 # S UNL
261 33 2 23.099001 23.782000 37.013000 # S UNL
262 33 2 23.302000 25.538000 35.986000 # S UNL
263 33 2 22.357000 26.973000 37.091000 # S UNL
264 33 2 20.525000 27.260000 36.234001 # S UNL
265 34 2 25.629999 33.988998 11.468000 # S UNL
266 34 2 25.120001 33.431999 13.344000 # S UNL
267 34 2 25.922001 31.579000 13.659000 # S UNL
268 34 2 24.386999 30.240000 13.389000 # S UNL
269 34 2 24.584999 29.476000 11.504000 # S UNL
270 34 2 23.231001 30.462000 10.332000 # S UNL
271 34 2 24.275000 31.888000 9.308000 # S UNL
272 34 2 23.968000 33.654999 10.286000 # S UNL
273 35 2 34.340000 11.920000 16.417000 # S UNL
274 35 2 33.694000 11.496000 14.548000 # S UNL
275 35 2 34.227001 13.070000 13.358000 # S UNL
276 35 2 32.535000 14.215000 13.136000 # S UNL
277 35 2 32.694000 15.776000 14.445000 # S UNL
278 35 2 31.528000 15.304000 16.056000 # S UNL
279 35 2 32.790001 14.626000 17.511999 # S UNL
280 35 2 32.691002 12.586000 17.469999 # S UNL
281 36 2 1.993000 33.612000 9.089000 # S UNL
282 36 2 1.748000 33.240002 7.117000 # S UNL
283 36 2 1.449000 31.228001 6.918000 # S UNL
284 36 2 3.251000 30.440001 6.325000 # S UNL
285 36 2 4.138000 29.655001 7.990000 # S UNL
286 36 2 5.532000 31.018999 8.603000 # S UNL
287 36 2 4.699000 32.046001 10.159000 # S UNL
288 36 2 4.026000 33.819000 9.398000 # S UNL
289 37 2 2.704000 24.518999 1.762000 # S UNL
290 37 2 2.899000 25.181999 3.663000 # S UNL
291 37 2 4.898000 25.208000 4.088000 # S UNL
292 37 2 5.272000 23.507999 5.180000 # S UNL
293 37 2 6.055000 22.129999 3.891000 # S UNL
294 37 2 4.532000 20.854000 3.409000 # S UNL
295 37 2 3.851000 21.424999 1.570000 # S UNL
296 37 2 2.161000 22.528000 1.889000 # S UNL
297 38 2 24.528000 35.457001 19.532000 # S UNL
298 38 2 25.860001 34.278999 18.569000 # S UNL
299 38 2 26.379000 35.244999 16.844999 # S UNL
300 38 2 25.284000 34.365002 15.346000 # S UNL
301 38 2 23.686001 35.584999 14.978000 # S UNL
302 38 2 22.083000 34.743000 15.927000 # S UNL
303 38 2 21.820999 35.783001 17.665001 # S UNL
304 38 2 22.658001 34.660000 19.152000 # S UNL
305 39 2 39.543999 29.298000 27.919001 # S UNL
306 39 2 40.147999 31.164000 28.413000 # S UNL
307 39 2 42.126999 31.304001 27.922001 # S UNL
308 39 2 43.167999 31.049999 29.676001 # S UNL
309 39 2 43.811001 29.111000 29.714001 # S UNL
310 39 2 42.528000 28.098000 30.941999 # S UNL
311 39 2 41.223000 27.101000 29.729000 # S UNL
312 39 2 39.507999 28.209999 29.676001 # S UNL
313 40 2 16.274000 11.298000 1.404000 # S UNL
314 40 2 16.429001 13.235000 0.843000 # S UNL
315 40 2 15.143000 14.305000 2.017000 # S UNL
316 40 2 13.468000 14.635000 0.873000 # S UNL
317 40 2 12.074000 13.253000 1.441000 # S UNL
318 40 2 12.108000 11.779000 0.026000 # S UNL
319 40 2 13.200000 10.241000 0.811000 # S UNL
320 40 2 15.069000 10.376000 -0.000000 # S UNL
321 41 2 15.720000 38.933998 40.743000 # S UNL
322 41 2 14.815000 40.442001 41.740002 # S UNL
323 41 2 15.239000 42.168999 40.731998 # S UNL
324 41 2 16.763000 43.075001 41.770000 # S UNL
325 41 2 18.499001 42.640999 40.783001 # S UNL
326 41 2 19.395000 41.126999 41.824001 # S UNL
327 41 2 18.990999 39.402000 40.808998 # S UNL
328 41 2 17.447001 38.493000 41.790001 # S UNL
329 42 2 36.377998 29.417999 42.233002 # S UNL
330 42 2 38.056999 30.535999 42.098999 # S UNL
331 42 2 39.251999 29.658001 40.692001 # S UNL
332 42 2 40.660000 28.582001 41.731998 # S UNL
333 42 2 40.044998 26.632999 41.728001 # S UNL
334 42 2 39.195999 26.288000 43.555000 # S UNL
335 42 2 37.173000 26.389000 43.286999 # S UNL
336 42 2 36.590000 28.242001 43.918999 # S UNL
337 43 2 15.885000 30.118999 41.296001 # S UNL
338 43 2 17.898001 30.308001 41.308998 # S UNL
339 43 2 18.662001 28.548000 42.013000 # S UNL
340 43 2 19.125999 28.878000 43.987999 # S UNL
341 43 2 17.598000 28.101999 45.098999 # S UNL
342 43 2 16.424000 29.681000 45.655998 # S UNL
343 43 2 14.818000 29.688000 44.394001 # S UNL
344 43 2 15.193000 31.108000 42.974998 # S UNL
345 44 2 7.801000 2.923000 32.264000 # S UNL
346 44 2 6.793000 4.388000 31.302000 # S UNL
347 44 2 6.427000 5.863000 32.667999 # S UNL
348 44 2 4.478000 5.613000 33.269001 # S UNL
349 44 2 4.525000 4.631000 35.060001 # S UNL
350 44 2 4.102000 2.671000 34.659000 # S UNL
351 44 2 5.886000 1.678000 34.652000 # S UNL
352 44 2 6.420000 1.446000 32.694000 # S UNL
353 45 2 19.124001 3.083000 8.574000 # S UNL
354 45 2 21.100000 2.976000 8.155000 # S UNL
355 45 2 22.027000 2.237000 9.819000 # S UNL
356 45 2 22.837000 3.858000 10.788000 # S UNL
357 45 2 21.559999 4.347000 12.306000 # S UNL
358 45 2 20.466999 5.946000 11.653000 # S UNL
359 45 2 18.657000 5.212000 11.058000 # S UNL
360 45 2 18.726999 5.061000 9.022000 # S UNL
361 46 2 10.021000 9.803000 7.181000 # S UNL
362 46 2 9.501000 7.850000 7.265000 # S UNL
363 46 2 9.588000 7.124000 5.357000 # S UNL
364 46 2 7.651000 7.087000 4.672000 # S UNL
365 46 2 7.396000 8.750000 3.513000 # S UNL
366 46 2 6.407000 10.116000 4.667000 # S UNL
367 46 2 7.812000 11.435000 5.344000 # S UNL
368 46 2 8.260000 10.882000 7.259000 # S UNL
369 47 2 7.916000 28.893000 13.987000 # S UNL
370 47 2 8.984000 30.270000 12.961000 # S UNL
371 47 2 7.676000 31.250999 11.734000 # S UNL
372 47 2 7.913000 30.420000 9.869000 # S UNL
373 47 2 6.393000 29.077999 9.616000 # S UNL
374 47 2 7.188000 27.228001 9.965000 # S UNL
375 47 2 6.643000 26.705999 11.862000 # S UNL
376 47 2 8.256000 27.077999 13.059000 # S UNL
377 48 2 33.438999 17.181999 23.683001 # S UNL
378 48 2 32.750999 18.966000 23.024000 # S UNL
379 48 2 30.784000 19.086000 23.562000 # S UNL
380 48 2 29.702000 18.620001 21.878000 # S UNL
381 48 2 29.132999 16.666000 22.056000 # S UNL
382 48 2 30.417000 15.578000 20.895000 # S UNL
383 48 2 31.792999 14.755000 22.160000 # S UNL
384 48 2 33.466000 15.922000 22.045000 # S UNL
385 49 2 31.357000 24.760000 27.344999 # S UNL
386 49 2 30.416000 24.909000 29.129000 # S UNL
387 49 2 29.315001 26.629999 29.084999 # S UNL
388 49 2 30.407000 28.032000 30.117001 # S UNL
389 49 2 31.367001 29.181999 28.726999 # S UNL
390 49 2 33.294998 28.506001 28.646000 # S UNL
391 49 2 33.426998 27.312000 26.993999 # S UNL
392 49 2 33.303001 25.382999 27.655001 # S UNL
393 50 2 20.191000 3.536000 32.805000 # S UNL
394 50 2 21.622999 2.398000 31.941999 # S UNL
395 50 2 23.422001 3.059000 32.651001 # S UNL
396 50 2 24.207001 4.262000 31.181999 # S UNL
397 50 2 23.827999 6.195000 31.726000 # S UNL
398 50 2 22.212999 6.801000 30.629999 # S UNL
399 50 2 20.590000 6.678000 31.863001 # S UNL
400 50 2 19.628000 4.938000 31.393999 # S UNL
401 51 2 17.010000 20.243000 3.057000 # S UNL
402 51 2 16.280001 20.764000 4.870000 # S UNL
403 51 2 15.087000 22.399000 4.589000 # S UNL
404 51 2 16.212999 24.028000 5.138000 # S UNL
405 51 2 16.936001 24.861000 3.418000 # S UNL
406 51 2 18.875000 24.239000 3.243000 # S UNL
407 51 2 18.878000 22.708000 1.891000 # S UNL
408 51 2 18.941999 20.975000 2.971000 # S UNL
409 52 2 25.245001 0.699000 15.350000 # S UNL
410 52 2 24.216999 1.968000 16.542999 # S UNL
411 52 2 22.531000 0.986000 17.152000 # S UNL
412 52 2 21.007000 1.676000 15.959000 # S UNL
413 52 2 20.711000 0.277000 14.499000 # S UNL
414 52 2 21.639000 0.985000 12.821000 # S UNL
415 52 2 23.424000 0.002000 12.682000 # S UNL
416 52 2 24.851000 1.273000 13.404000 # S UNL
417 53 2 16.032000 37.192001 29.146000 # S UNL
418 53 2 16.999001 38.831001 28.462999 # S UNL
419 53 2 16.098000 40.457001 29.311001 # S UNL
420 53 2 14.842000 41.224998 27.877001 # S UNL
421 53 2 12.960000 40.558998 28.312000 # S UNL
422 53 2 12.591000 38.994999 27.049000 # S UNL
423 53 2 12.888000 37.287998 28.129999 # S UNL
424 53 2 14.748000 36.598999 27.638000 # S UNL
425 54 2 25.079000 29.868000 21.823000 # S UNL
426 54 2 23.525000 28.577000 21.750000 # S UNL
427 54 2 22.313999 29.181000 20.218000 # S UNL
428 54 2 20.761999 30.208000 21.090000 # S UNL
429 54 2 21.181999 32.199001 20.903000 # S UNL
430 54 2 21.912001 32.811001 22.711000 # S UNL
431 54 2 23.944000 32.891998 22.525000 # S UNL
432 54 2 24.677999 31.181999 23.368000 # S UNL
433 55 2 23.813999 21.225000 39.990002 # S UNL
434 55 2 21.795000 21.108999 40.030998 # S UNL
435 55 2 21.174999 22.025999 41.749001 # S UNL
436 55 2 20.783001 20.518999 43.090000 # S UNL
437 55 2 22.407000 20.378000 44.321999 # S UNL
438 55 2 23.504000 18.787001 43.657001 # S UNL
439 55 2 25.047001 19.559000 42.563999 # S UNL
440 55 2 24.518999 19.379999 40.598000 # S UNL
441 56 2 43.016998 33.514999 38.044998 # S UNL
442 56 2 41.617001 34.507999 39.115002 # S UNL
443 56 2 42.126999 36.486000 39.082001 # S UNL
444 56 2 43.043999 36.868999 40.881001 # S UNL
445 56 2 45.058998 36.840000 40.543999 # S UNL
446 56 2 45.729000 35.019001 41.187000 # S UNL
447 56 2 45.953999 33.858002 39.521000 # S UNL
448 56 2 44.304001 32.658001 39.417000 # S UNL
449 57 2 15.874000 21.211000 25.937000 # S UNL
450 57 2 13.856000 21.271000 25.820999 # S UNL
451 57 2 13.290000 23.198999 26.191000 # S UNL
452 57 2 12.672000 23.247000 28.150000 # S UNL
453 57 2 14.223000 24.000000 29.247000 # S UNL
454 57 2 15.145000 22.400999 30.125000 # S UNL
455 57 2 16.806999 22.000000 29.007999 # S UNL
456 57 2 16.332001 20.427000 27.794001 # S UNL
457 58 2 16.023001 13.283000 18.858999 # S UNL
458 58 2 14.973000 14.505000 20.080999 # S UNL
459 58 2 14.973000 16.358999 19.219999 # S UNL
460 58 2 16.412001 17.445000 20.205999 # S UNL
461 58 2 18.083000 17.429001 19.030001 # S UNL
462 58 2 19.341000 16.028999 19.827000 # S UNL
463 58 2 19.146000 14.349000 18.681999 # S UNL
464 58 2 17.902000 13.088000 19.698000 # S UNL
465 59 2 30.872000 29.687000 37.328999 # S UNL
466 59 2 29.499001 29.850000 38.805000 # S UNL
467 59 2 30.415001 29.284000 40.542000 # S UNL
468 59 2 29.820000 27.349001 40.896000 # S UNL
469 59 2 31.336000 26.132999 40.264999 # S UNL
470 59 2 30.781000 25.414000 38.432999 # S UNL
471 59 2 31.783001 26.523001 37.042000 # S UNL
472 59 2 30.462999 27.917000 36.342999 # S UNL
473 60 2 43.006001 13.906000 1.297000 # S UNL
474 60 2 41.630001 14.624000 0.001000 # S UNL
475 60 2 39.797001 14.363000 0.866000 # S UNL
476 60 2 38.992001 12.682000 0.001000 # S UNL
477 60 2 39.292000 11.138000 1.305000 # S UNL
478 60 2 40.900002 10.089000 0.604000 # S UNL
479 60 2 42.507000 10.667000 1.724000 # S UNL
480 60 2 43.539001 12.031000 0.608000 # S UNL
481 61 2 10.417000 4.398000 35.673000 # S UNL
482 61 2 9.448000 3.580000 34.098000 # S UNL
483 61 2 9.548000 1.551000 34.320000 # S UNL
484 61 2 11.054000 0.914000 33.075001 # S UNL
485 61 2 12.713000 0.639000 34.236000 # S UNL
486 61 2 13.894000 2.284000 33.960999 # S UNL
487 61 2 13.595000 3.495000 35.577999 # S UNL
488 61 2 12.288000 4.950000 34.987000 # S UNL
489 62 2 31.480000 27.488001 23.129000 # S UNL
490 62 2 33.148998 28.586000 22.815001 # S UNL
491 62 2 34.254002 28.502001 24.532000 # S UNL
492 62 2 33.895000 30.264000 25.528000 # S UNL
493 62 2 32.507999 29.861000 26.973000 # S UNL
494 62 2 30.709999 30.513000 26.250999 # S UNL
495 62 2 29.722000 28.861000 25.568001 # S UNL
496 62 2 29.962999 28.830999 23.539000 # S UNL
497 63 2 28.525000 7.730000 36.286999 # S UNL
498 63 2 29.664000 7.146000 34.721001 # S UNL
499 63 2 31.605000 7.573000 35.196999 # S UNL
500 63 2 32.057999 9.324000 34.221001 # S UNL
501 63 2 31.896000 10.831000 35.590000 # S UNL
502 63 2 30.089001 11.727000 35.257000 # S UNL
503 63 2 28.806999 11.001000 36.671001 # S UNL
504 63 2 27.694000 9.548000 35.761002 # S UNL
505 64 2 11.466000 0.000000 39.749001 # S UNL
506 64 2 13.479000 0.186000 39.683998 # S UNL
507 64 2 14.161000 0.000000 41.601002 # S UNL
508 64 2 14.514000 1.912000 42.268002 # S UNL
509 64 2 12.906000 2.455000 43.404999 # S UNL
510 64 2 11.735000 3.645000 42.226002 # S UNL
511 64 2 10.207000 2.472000 41.547001 # S UNL
512 64 2 10.697000 1.916000 39.643002 # S UNL
513 65 2 6.584000 16.903999 43.379002 # S UNL
514 65 2 7.709000 16.666000 45.042999 # S UNL
515 65 2 8.725000 14.906000 44.834000 # S UNL
516 65 2 7.696000 13.517000 45.945999 # S UNL
517 65 2 6.541000 12.447000 44.644001 # S UNL
518 65 2 4.646000 13.199000 44.796001 # S UNL
519 65 2 4.383000 14.445000 43.199001 # S UNL
520 65 2 4.659000 16.348000 43.889000 # S UNL
521 66 2 36.547001 13.265000 11.874000 # S UNL
522 66 2 35.644001 11.589000 12.555000 # S UNL
523 66 2 34.820000 10.650000 10.938000 # S UNL
524 66 2 32.820999 11.125000 10.960000 # S UNL
525 66 2 32.551998 12.638000 9.612000 # S UNL
526 66 2 32.438000 14.367000 10.695000 # S UNL
527 66 2 34.268002 15.264000 10.558000 # S UNL
528 66 2 35.264000 14.832000 12.288000 # S UNL
529 67 2 33.879002 35.083000 15.621000 # S UNL
530 67 2 32.243999 34.641998 16.726999 # S UNL
531 67 2 32.539001 32.783001 17.521000 # S UNL
532 67 2 31.468000 31.483000 16.344000 # S UNL
533 67 2 32.792999 30.615000 15.053000 # S UNL
534 67 2 32.582001 31.583000 13.265000 # S UNL
535 67 2 34.123001 32.917000 13.137000 # S UNL
536 67 2 33.362000 34.742001 13.649000 # S UNL
537 68 2 17.987000 13.305000 42.757999 # S UNL
538 68 2 18.068001 14.174000 40.933998 # S UNL
539 68 2 17.737000 12.704000 39.554001 # S UNL
540 68 2 19.584999 12.178000 38.825001 # S UNL
541 68 2 20.146999 10.471000 39.797001 # S UNL
542 68 2 21.464001 11.039000 41.254002 # S UNL
543 68 2 20.415001 11.077000 43.007000 # S UNL
544 68 2 19.944000 13.032000 43.365002 # S UNL
545 69 2 12.896000 20.024000 29.231001 # S UNL
546 69 2 11.902000 20.445999 27.521000 # S UNL
547 69 2 10.104000 21.257999 28.056000 # S UNL
548 69 2 8.723000 19.745001 27.888000 # S UNL
549 69 2 8.407000 19.014000 29.768999 # S UNL
550 69 2 9.498000 17.291000 29.914000 # S UNL
551 69 2 11.199000 17.761999 30.941000 # S UNL
552 69 2 12.678000 17.993999 29.549999 # S UNL
553 70 2 19.212000 2.681000 22.079000 # S UNL
554 70 2 19.334999 4.173000 23.438999 # S UNL
555 70 2 20.070000 5.813000 22.466999 # S UNL
556 70 2 22.069000 5.906000 22.934999 # S UNL
557 70 2 23.090000 5.109000 21.355000 # S UNL
558 70 2 23.591000 3.201000 21.889000 # S UNL
559 70 2 22.243999 1.966000 20.976999 # S UNL
560 70 2 20.856001 1.467000 22.389999 # S UNL
561 71 2 33.137001 16.249001 28.049000 # S UNL
562 71 2 34.974998 15.657000 27.452000 # S UNL
563 71 2 36.262001 17.193001 27.855000 # S UNL
564 71 2 36.555000 18.173000 26.073000 # S UNL
565 71 2 35.345001 19.820000 26.091000 # S UNL
566 71 2 33.708000 19.351000 24.961000 # S UNL
567 71 2 32.213001 18.875000 26.268999 # S UNL
568 71 2 32.126999 16.836000 26.344000 # S UNL
569 72 2 26.407000 28.840000 20.400999 # S UNL
570 72 2 25.132000 28.457001 18.878000 # S UNL
571 72 2 24.479000 26.535000 19.111000 # S UNL
572 72 2 25.580999 25.396000 17.804001 # S UNL
573 72 2 27.068001 24.511000 18.889999 # S UNL
574 72 2 28.764000 25.600000 18.549000 # S UNL
575 72 2 29.011000 26.819000 20.169001 # S UNL
576 72 2 28.315001 28.662001 19.628000 # S UNL
577 73 2 31.471001 13.433000 31.995001 # S UNL
578 73 2 30.701000 11.594000 31.655001 # S UNL
579 73 2 32.119999 10.236000 32.220001 # S UNL
580 73 2 33.036999 9.617000 30.488001 # S UNL
581 73 2 34.787998 10.659000 30.333000 # S UNL
582 73 2 34.450001 12.166000 28.995001 # S UNL
583 73 2 34.138000 13.861000 30.090000 # S UNL
584 73 2 32.116001 14.146000 30.165001 # S UNL
585 74 2 15.355000 44.105999 33.686001 # S UNL
586 74 2 16.933001 43.021999 34.335999 # S UNL
587 74 2 16.184000 41.474998 35.442001 # S UNL
588 74 2 16.399000 42.026001 37.410000 # S UNL
589 74 2 14.583000 42.720001 38.039001 # S UNL
590 74 2 14.697000 44.761002 38.000999 # S UNL
591 74 2 13.759000 45.367001 36.291000 # S UNL
592 74 2 15.228000 45.756001 34.924999 # S UNL
593 75 2 10.695000 38.277000 30.733999 # S UNL
594 75 2 12.315000 39.069000 29.818001 # S UNL
595 75 2 13.030000 40.547001 31.035000 # S UNL
596 75 2 12.349000 42.316002 30.243000 # S UNL
597 75 2 10.714000 42.869999 31.337000 # S UNL
598 75 2 9.073000 42.352001 30.233999 # S UNL
599 75 2 8.367000 40.605000 31.021999 # S UNL
600 75 2 9.039000 39.102001 29.812000 # S UNL
601 76 2 3.238000 22.372999 14.445000 # S UNL
602 76 2 2.955000 23.889000 15.753000 # S UNL
603 76 2 4.628000 25.061001 15.685000 # S UNL
604 76 2 5.759000 24.537001 17.318001 # S UNL
605 76 2 7.211000 23.261999 16.655001 # S UNL
606 76 2 6.592000 21.374001 17.135000 # S UNL
607 76 2 5.820000 20.561001 15.428000 # S UNL
608 76 2 3.789000 20.726999 15.566000 # S UNL
609 77 2 27.264999 15.153000 21.028999 # S UNL
610 77 2 26.858000 13.412000 20.086000 # S UNL
611 77 2 28.599001 12.344000 20.018000 # S UNL
612 77 2 29.355000 12.606000 18.125999 # S UNL
613 77 2 30.804001 14.041000 18.254000 # S UNL
614 77 2 29.959000 15.780000 17.589001 # S UNL
615 77 2 29.465000 16.861000 19.250000 # S UNL
616 77 2 27.462999 16.587000 19.552999 # S UNL
617 78 2 18.028000 8.419000 9.093000 # S UNL
618 78 2 19.997999 8.829000 9.291000 # S UNL
619 78 2 20.348000 9.152000 11.279000 # S UNL
620 78 2 20.417999 11.191000 11.521000 # S UNL
621 78 2 18.596001 11.771000 12.241000 # S UNL
622 78 2 17.555000 12.523000 10.650000 # S UNL
623 78 2 16.273001 11.053000 10.044000 # S UNL
624 78 2 17.132999 10.157000 8.422000 # S UNL
625 79 2 1.786000 17.048000 31.934999 # S UNL
626 79 2 2.998000 18.575001 31.396000 # S UNL
627 79 2 1.795000 20.131001 30.844000 # S UNL
628 79 2 1.746000 20.114000 28.790001 # S UNL
629 79 2 0.003000 19.202000 28.240999 # S UNL
630 79 2 0.488000 17.285000 27.723000 # S UNL
631 79 2 0.000000 16.107000 29.318001 # S UNL
632 79 2 1.737000 15.745000 30.330999 # S UNL
633 80 2 39.050999 25.827999 7.873000 # S UNL
634 80 2 38.124001 24.683001 9.259000 # S UNL
635 80 2 36.147999 24.601000 8.747000 # S UNL
636 80 2 35.187000 25.954000 9.959000 # S UNL
637 80 2 34.905998 27.650000 8.856000 # S UNL
638 80 2 36.362999 28.964001 9.430000 # S UNL
639 80 2 37.813999 28.891001 7.995000 # S UNL
640 80 2 39.299999 27.694000 8.726000 # S UNL