LAMMPS Description

4096 atoms
2 atom types

0.0 45.96 xlo xhi
0.0 45.96 ylo yhi
0.0 45.96 zlo zhi

Masses

1 6.941000 # LI
2 32.064999 # S

Atoms # molecular

1 2 1 37.327000 11.231000 28.872000
2 2 1 38.709000 11.666000 30.283001
3 2 1 37.938000 13.167000 31.436001
4 2 1 38.811001 14.904000 30.770000
5 2 1 37.464001 15.815000 29.533001
6 2 1 38.057999 15.401000 27.621000
7 2 1 36.865002 13.883000 26.955000
8 2 1 37.951000 12.162000 27.135000
9 2 2 31.320000 3.464000 9.068000
10 2 2 31.322001 4.471000 10.822000
11 2 2 33.275002 4.825000 11.309000
12 2 2 33.780998 3.405000 12.706000
13 2 2 34.796001 1.932000 11.720000
14 2 2 33.466000 0.408000 11.422000
15 2 2 32.833000 0.556000 9.486000
16 2 2 31.009001 1.475000 9.535000
17 2 3 31.712999 2.752000 29.132000
18 2 3 29.856001 2.791000 29.931999
19 2 3 28.823999 4.278000 28.983000
20 2 3 28.855000 5.893000 30.253000
21 2 3 30.323999 7.148000 29.589001
22 2 3 31.945000 6.835000 30.792999
23 2 3 33.221001 5.626000 29.753000
24 2 3 32.948002 3.732000 30.468000
25 2 4 27.207001 36.229000 36.764000
26 2 4 26.590000 35.233002 38.411999
27 2 4 24.547001 35.191002 38.359001
28 2 4 23.914000 36.672001 39.636002
29 2 4 23.430000 38.287998 38.484001
30 2 4 25.007000 39.582001 38.608002
31 2 4 26.098000 39.339001 36.897999
32 2 4 27.683001 38.143002 37.380001
33 2 5 21.959000 24.238001 27.107000
34 2 5 20.101000 23.594000 27.577000
35 2 5 19.556000 24.540001 29.304001
36 2 5 19.858999 23.184000 30.818001
37 2 5 21.645000 23.653000 31.691999
38 2 5 23.020000 22.337000 30.947001
39 2 5 24.056000 23.334000 29.497000
40 2 5 23.264000 22.750999 27.705999
41 2 6 12.590000 26.899000 0.002000
42 2 6 14.158000 27.702000 0.996000
43 2 6 15.852000 27.134001 0.005000
44 2 6 16.635000 25.559999 1.069000
45 2 6 16.076000 23.849001 0.104000
46 2 6 14.493000 23.084000 1.147000
47 2 6 12.808000 23.603001 0.116000
48 2 6 12.014000 25.226000 1.070000
49 2 7 5.132000 16.160000 15.079000
50 2 7 3.630000 14.892000 15.556000
51 2 7 1.896000 15.736000 14.881000
52 2 7 1.006000 16.600000 16.518999
53 2 7 1.438000 18.596001 16.451000
54 2 7 2.966000 18.905001 17.773001
55 2 7 4.680000 19.023001 16.667999
56 2 7 5.591000 17.200001 16.806000
57 2 8 14.493000 10.815000 41.683998
58 2 8 16.224001 10.584000 40.665001
59 2 8 15.999000 11.539000 38.873001
60 2 8 15.582000 10.074000 37.493999
61 2 8 13.559000 10.082000 37.206001
62 2 8 12.809000 8.530000 38.304001
63 2 8 12.050000 9.340000 40.018002
64 2 8 13.450000 9.043000 41.476002
65 2 9 1.283000 16.148001 37.919998
66 2 9 0.003000 16.733999 39.372002
67 2 9 1.066000 17.893999 40.676998
68 2 9 1.524000 16.683001 42.272999
69 2 9 3.451000 16.056000 42.014000
70 2 9 3.348000 14.153000 41.272999
71 2 9 3.667000 14.292000 39.261002
72 2 9 1.830000 14.206000 38.369999
73 2 10 7.237000 33.820000 7.960000
74 2 10 9.002000 33.178001 7.209000
75 2 10 10.423000 33.521000 8.638000
76 2 10 11.390000 35.244999 8.077000
77 2 10 10.596000 36.764000 9.189000
78 2 10 9.269000 37.737999 7.977000
79 2 10 7.408000 37.076000 8.497000
80 2 10 6.879000 35.671001 7.113000
81 2 11 12.525000 22.992001 11.466000
82 2 11 11.965000 24.362000 12.844000
83 2 11 12.252000 26.205000 12.008000
84 2 11 14.025000 26.908001 12.772000
85 2 11 15.460000 26.575001 11.356000
86 2 11 16.476000 24.900999 11.941000
87 2 11 15.746000 23.354000 10.824000
88 2 11 14.415000 22.355000 12.008000
89 2 12 29.929001 36.651001 1.967000
90 2 12 28.747999 37.518002 0.573000
91 2 12 29.660999 39.257999 0.011000
92 2 12 28.698999 40.762001 1.029000
93 2 12 29.864000 41.234001 2.639000
94 2 12 29.021000 40.313999 4.257000
95 2 12 30.118999 38.627998 4.609000
96 2 12 29.073000 37.069000 3.802000
97 2 13 26.632000 10.844000 12.927000
98 2 13 26.287001 12.658000 13.752000
99 2 13 28.080000 13.636000 13.824000
100 2 13 28.754999 13.448000 15.756000
101 2 13 30.128000 11.934000 15.765000
102 2 13 29.167999 10.284000 16.496000
103 2 13 28.673000 9.133000 14.883000
104 2 13 26.701000 9.493000 14.489000
105 2 14 22.857000 1.049000 28.268999
106 2 14 24.046000 0.219000 26.860001
107 2 14 25.726000 1.377000 26.733999
108 2 14 25.469000 2.577000 25.086000
109 2 14 24.847000 4.401000 25.764999
110 2 14 22.823999 4.469000 25.478001
111 2 14 21.964001 4.076000 27.288000
112 2 14 21.402000 2.112000 27.256001
113 2 15 9.958000 29.907000 23.405001
114 2 15 11.647000 29.853001 22.295000
115 2 15 12.839000 31.382999 22.938999
116 2 15 12.599000 32.904999 21.580000
117 2 15 11.277000 34.231998 22.396000
118 2 15 9.468000 33.866001 21.516001
119 2 15 8.385000 32.759998 22.847000
120 2 15 8.516000 30.815001 22.235001
121 2 16 34.405998 38.912998 43.477001
122 2 16 35.380001 37.957001 44.970001
123 2 16 35.117001 35.952000 44.671001
124 2 16 33.624001 35.374001 45.959000
125 2 16 31.900000 35.272999 44.868000
126 2 16 30.860001 36.987999 45.264999
127 2 16 31.177000 38.243000 43.686001
128 2 16 32.615002 39.570000 44.271999
129 2 17 6.867000 24.840000 29.339001
130 2 17 6.113000 26.474001 30.261999
131 2 17 7.351000 28.038000 29.818001
132 2 17 8.559000 28.292999 31.461000
133 2 17 10.342000 27.389999 31.037001
134 2 17 10.318000 25.580999 31.989000
135 2 17 9.861000 24.181999 30.573999
136 2 17 7.873000 23.761000 30.787001
137 2 18 5.417000 27.841000 23.194000
138 2 18 3.857000 26.576000 22.954000
139 2 18 3.999000 25.799000 21.069000
140 2 18 2.665000 26.854000 19.916000
141 2 18 3.739000 28.261000 18.896000
142 2 18 3.473000 30.028000 19.889000
143 2 18 5.146000 30.318001 21.024000
144 2 18 4.669000 29.749001 22.927000
145 2 19 21.757999 17.368999 15.996000
146 2 19 21.955999 17.673000 14.006000
147 2 19 20.851999 16.233999 13.066000
148 2 19 22.187000 14.792000 12.465000
149 2 19 22.094999 13.282000 13.839000
150 2 19 23.709000 13.519000 15.071000
151 2 19 23.020000 14.415000 16.771999
152 2 19 23.476000 16.400000 16.615000
153 2 20 0.792000 5.999000 39.250999
154 2 20 0.466000 6.700000 37.382000
155 2 20 2.223000 7.517000 36.731998
156 2 20 2.033000 9.548000 36.980000
157 2 20 3.006000 10.033000 38.709999
158 2 20 1.566000 10.252000 40.145000
159 2 20 1.562000 8.526000 41.237000
160 2 20 0.002000 7.401000 40.548000
161 2 21 23.966000 13.206000 30.325001
162 2 21 25.292999 13.748000 31.750999
163 2 21 27.037001 12.759000 31.355000
164 2 21 27.086000 11.153000 32.636002
165 2 21 26.479000 9.519000 31.570000
166 2 21 24.525000 9.191000 32.070999
167 2 21 23.396000 9.958000 30.552999
168 2 21 22.733000 11.785000 31.181999
169 2 22 20.333000 13.487000 20.413000
170 2 22 21.860001 14.657000 21.038000
171 2 22 22.996000 13.532000 22.311001
172 2 22 22.454000 14.100000 24.209999
173 2 22 21.146000 12.692000 24.903999
174 2 22 19.274000 13.487000 24.698999
175 2 22 18.469999 12.658000 23.014000
176 2 22 18.680000 14.040000 21.524000
177 2 23 7.183000 35.023998 38.955002
178 2 23 7.600000 36.304001 37.445999
179 2 23 5.908000 36.467999 36.312000
180 2 23 6.195000 35.250000 34.681000
181 2 23 5.197000 33.507000 35.054001
182 2 23 6.603000 32.150002 35.655998
183 2 23 6.485000 32.050999 37.693001
184 2 23 8.005000 33.203999 38.424000
185 2 24 19.193001 23.250999 25.514000
186 2 24 20.250000 21.580000 25.089001
187 2 24 21.892000 21.582001 26.306999
188 2 24 23.455000 22.253000 25.155001
189 2 24 23.721001 24.229000 25.600000
190 2 24 22.840000 25.288000 24.090000
191 2 24 21.024000 25.905001 24.790001
192 2 24 19.634001 24.617001 24.027000
193 2 25 44.820000 20.240999 8.372000
194 2 25 45.958000 19.240000 9.711000
195 2 25 45.951000 17.273001 9.154000
196 2 25 44.589001 16.340000 10.378000
197 2 25 42.856998 16.150000 9.310000
198 2 25 41.616001 17.643999 9.945000
199 2 25 41.714001 19.122999 8.540000
200 2 25 42.985001 20.544001 9.274000
201 2 26 5.930000 5.472000 8.060000
202 2 26 4.253000 5.975000 7.047000
203 2 26 3.451000 4.243000 6.316000
204 2 26 4.007000 4.148000 4.340000
205 2 26 5.610000 2.885000 4.230000
206 2 26 7.272000 4.067000 4.096000
207 2 26 8.099000 4.124000 5.963000
208 2 26 7.519000 5.892000 6.807000
209 2 27 40.577000 4.388000 5.937000
210 2 27 42.367001 4.393000 6.877000
211 2 27 43.706001 3.491000 5.624000
212 2 27 43.921001 1.566000 6.310000
213 2 27 42.750000 0.377000 5.131000
214 2 27 41.042999 0.006000 6.194000
215 2 27 39.612000 1.264000 5.457000
216 2 27 39.487999 2.835000 6.757000
217 2 28 17.839001 32.474998 7.830000
218 2 28 17.565001 30.999001 6.475000
219 2 28 16.062000 29.808001 7.182000
220 2 28 16.979000 28.172001 8.023000
221 2 28 17.025000 28.487000 10.042000
222 2 28 18.917000 29.120001 10.488000
223 2 28 18.820000 31.149000 10.694000
224 2 28 19.500999 31.948999 8.941000
225 2 29 36.942001 12.420000 19.087999
226 2 29 35.501999 11.020000 18.853001
227 2 29 35.035000 10.320000 20.716000
228 2 29 36.028999 8.533000 20.920000
229 2 29 37.715000 8.909000 22.011000
230 2 29 39.259998 9.015000 20.676001
231 2 29 39.634998 11.000000 20.372999
232 2 29 38.733002 11.505000 18.611000
233 2 30 29.261000 19.287001 10.214000
234 2 30 30.749001 19.993999 11.386000
235 2 30 32.237999 20.638000 10.143000
236 2 30 33.650002 19.143999 10.124000
237 2 30 33.351002 18.062000 8.416000
238 2 30 32.334999 16.375999 8.967000
239 2 30 30.374001 16.694000 8.494000
240 2 30 29.433001 17.226999 10.227000
241 2 31 36.733002 20.222000 23.381001
242 2 31 37.953999 21.046000 21.996000
243 2 31 37.780998 23.073999 22.173000
244 2 31 36.512001 23.672001 20.672001
245 2 31 34.667999 23.924999 21.513000
246 2 31 33.584000 22.254999 21.049999
247 2 31 33.608002 21.063999 22.709000
248 2 31 35.025002 19.629000 22.379000
249 2 32 19.923000 17.184000 9.265000
250 2 32 20.193001 18.444000 10.823000
251 2 32 21.655001 19.764999 10.282000
252 2 32 23.382000 19.100000 11.175000
253 2 32 24.441000 18.087999 9.751000
254 2 32 24.120001 16.098000 10.094000
255 2 32 22.712999 15.492000 8.743000
256 2 32 20.929001 15.442000 9.738000
257 2 33 19.157000 26.191000 37.355999
258 2 33 18.808001 24.472000 36.349998
259 2 33 19.906000 23.009001 37.263000
260 2 33 21.584999 22.750999 36.106998
261 2 33 23.099001 23.782000 37.013000
262 2 33 23.302000 25.538000 35.986000
263 2 33 22.357000 26.973000 37.091000
264 2 33 20.525000 27.260000 36.234001
265 2 34 25.629999 33.988998 11.468000
266 2 34 25.120001 33.431999 13.344000
267 2 34 25.922001 31.579000 13.659000
268 2 34 24.386999 30.240000 13.389000
269 2 34 24.584999 29.476000 11.504000
270 2 34 23.231001 30.462000 10.332000
271 2 34 24.275000 31.888000 9.308000
272 2 34 23.968000 33.654999 10.286000
273 2 35 34.340000 11.920000 16.417000
274 2 35 33.694000 11.496000 14.548000
275 2 35 34.227001 13.070000 13.358000
276 2 35 32.535000 14.215000 13.136000
277 2 35 32.694000 15.776000 14.445000
278 2 35 31.528000 15.304000 16.056000
279 2 35 32.790001 14.626000 17.511999
280 2 35 32.691002 12.586000 17.469999
281 2 36 1.993000 33.612000 9.089000
282 2 36 1.748000 33.240002 7.117000
283 2 36 1.449000 31.228001 6.918000
284 2 36 3.251000 30.440001 6.325000
285 2 36 4.138000 29.655001 7.990000
286 2 36 5.532000 31.018999 8.603000
287 2 36 4.699000 32.046001 10.159000
288 2 36 4.026000 33.819000 9.398000
289 2 37 2.704000 24.518999 1.762000
290 2 37 2.899000 25.181999 3.663000
291 2 37 4.898000 25.208000 4.088000
292 2 37 5.272000 23.507999 5.180000
293 2 37 6.055000 22.129999 3.891000
294 2 37 4.532000 20.854000 3.409000
295 2 37 3.851000 21.424999 1.570000
296 2 37 2.161000 22.528000 1.889000
297 2 38 24.528000 35.457001 19.532000
298 2 38 25.860001 34.278999 18.569000
299 2 38 26.379000 35.244999 16.844999
300 2 38 25.284000 34.365002 15.346000
301 2 38 23.686001 35.584999 14.978000
302 2 38 22.083000 34.743000 15.927000
303 2 38 21.820999 35.783001 17.665001
304 2 38 22.658001 34.660000 19.152000
305 2 39 39.543999 29.298000 27.919001
306 2 39 40.147999 31.164000 28.413000
307 2 39 42.126999 31.304001 27.922001
308 2 39 43.167999 31.049999 29.676001
309 2 39 43.811001 29.111000 29.714001
310 2 39 42.528000 28.098000 30.941999
311 2 39 41.223000 27.101000 29.729000
312 2 39 39.507999 28.209999 29.676001
313 2 40 16.274000 11.298000 1.404000
314 2 40 16.429001 13.235000 0.843000
315 2 40 15.143000 14.305000 2.017000
316 2 40 13.468000 14.635000 0.873000
317 2 40 12.074000 13.253000 1.441000
318 2 40 12.108000 11.779000 0.026000
319 2 40 13.200000 10.241000 0.811000
320 2 40 15.069000 10.376000 -0.000000
321 2 41 15.720000 38.933998 40.743000
322 2 41 14.815000 40.442001 41.740002
323 2 41 15.239000 42.168999 40.731998
324 2 41 16.763000 43.075001 41.770000
325 2 41 18.499001 42.640999 40.783001
326 2 41 19.395000 41.126999 41.824001
327 2 41 18.990999 39.402000 40.808998
328 2 41 17.447001 38.493000 41.790001
329 2 42 36.377998 29.417999 42.233002
330 2 42 38.056999 30.535999 42.098999
331 2 42 39.251999 29.658001 40.692001
332 2 42 40.660000 28.582001 41.731998
333 2 42 40.044998 26.632999 41.728001
334 2 42 39.195999 26.288000 43.555000
335 2 42 37.173000 26.389000 43.286999
336 2 42 36.590000 28.242001 43.918999
337 2 43 15.885000 30.118999 41.296001
338 2 43 17.898001 30.308001 41.308998
339 2 43 18.662001 28.548000 42.013000
340 2 43 19.125999 28.878000 43.987999
341 2 43 17.598000 28.101999 45.098999
342 2 43 16.424000 29.681000 45.655998
343 2 43 14.818000 29.688000 44.394001
344 2 43 15.193000 31.108000 42.974998
345 2 44 7.801000 2.923000 32.264000
346 2 44 6.793000 4.388000 31.302000
347 2 44 6.427000 5.863000 32.667999
348 2 44 4.478000 5.613000 33.269001
349 2 44 4.525000 4.631000 35.060001
350 2 44 4.102000 2.671000 34.659000
351 2 44 5.886000 1.678000 34.652000
352 2 44 6.420000 1.446000 32.694000
353 2 45 19.124001 3.083000 8.574000
354 2 45 21.100000 2.976000 8.155000
355 2 45 22.027000 2.237000 9.819000
356 2 45 22.837000 3.858000 10.788000
357 2 45 21.559999 4.347000 12.306000
358 2 45 20.466999 5.946000 11.653000
359 2 45 18.657000 5.212000 11.058000
360 2 45 18.726999 5.061000 9.022000
361 2 46 10.021000 9.803000 7.181000
362 2 46 9.501000 7.850000 7.265000
363 2 46 9.588000 7.124000 5.357000
364 2 46 7.651000 7.087000 4.672000
365 2 46 7.396000 8.750000 3.513000
366 2 46 6.407000 10.116000 4.667000
367 2 46 7.812000 11.435000 5.344000
368 2 46 8.260000 10.882000 7.259000
369 2 47 7.916000 28.893000 13.987000
370 2 47 8.984000 30.270000 12.961000
371 2 47 7.676000 31.250999 11.734000
372 2 47 7.913000 30.420000 9.869000
373 2 47 6.393000 29.077999 9.616000
374 2 47 7.188000 27.228001 9.965000
375 2 47 6.643000 26.705999 11.862000
376 2 47 8.256000 27.077999 13.059000
377 2 48 33.438999 17.181999 23.683001
378 2 48 32.750999 18.966000 23.024000
379 2 48 30.784000 19.086000 23.562000
380 2 48 29.702000 18.620001 21.878000
381 2 48 29.132999 16.666000 22.056000
382 2 48 30.417000 15.578000 20.895000
383 2 48 31.792999 14.755000 22.160000
384 2 48 33.466000 15.922000 22.045000
385 2 49 31.357000 24.760000 27.344999
386 2 49 30.416000 24.909000 29.129000
387 2 49 29.315001 26.629999 29.084999
388 2 49 30.407000 28.032000 30.117001
389 2 49 31.367001 29.181999 28.726999
390 2 49 33.294998 28.506001 28.646000
391 2 49 33.426998 27.312000 26.993999
392 2 49 33.303001 25.382999 27.655001
393 2 50 20.191000 3.536000 32.805000
394 2 50 21.622999 2.398000 31.941999
395 2 50 23.422001 3.059000 32.651001
396 2 50 24.207001 4.262000 31.181999
397 2 50 23.827999 6.195000 31.726000
398 2 50 22.212999 6.801000 30.629999
399 2 50 20.590000 6.678000 31.863001
400 2 50 19.628000 4.938000 31.393999
401 2 51 17.010000 20.243000 3.057000
402 2 51 16.280001 20.764000 4.870000
403 2 51 15.087000 22.399000 4.589000
404 2 51 16.212999 24.028000 5.138000
405 2 51 16.936001 24.861000 3.418000
406 2 51 18.875000 24.239000 3.243000
407 2 51 18.878000 22.708000 1.891000
408 2 51 18.941999 20.975000 2.971000
409 2 52 25.245001 0.699000 15.350000
410 2 52 24.216999 1.968000 16.542999
411 2 52 22.531000 0.986000 17.152000
412 2 52 21.007000 1.676000 15.959000
413 2 52 20.711000 0.277000 14.499000
414 2 52 21.639000 0.985000 12.821000
415 2 52 23.424000 0.002000 12.682000
416 2 52 24.851000 1.273000 13.404000
417 2 53 16.032000 37.192001 29.146000
418 2 53 16.999001 38.831001 28.462999
419 2 53 16.098000 40.457001 29.311001
420 2 53 14.842000 41.224998 27.877001
421 2 53 12.960000 40.558998 28.312000
422 2 53 12.591000 38.994999 27.049000
423 2 53 12.888000 37.287998 28.129999
424 2 53 14.748000 36.598999 27.638000
425 2 54 25.079000 29.868000 21.823000
426 2 54 23.525000 28.577000 21.750000
427 2 54 22.313999 29.181000 20.218000
428 2 54 20.761999 30.208000 21.090000
429 2 54 21.181999 32.199001 20.903000
430 2 54 21.912001 32.811001 22.711000
431 2 54 23.944000 32.891998 22.525000
432 2 54 24.677999 31.181999 23.368000
433 2 55 23.813999 21.225000 39.990002
434 2 55 21.795000 21.108999 40.030998
435 2 55 21.174999 22.025999 41.749001
436 2 55 20.783001 20.518999 43.090000
437 2 55 22.407000 20.378000 44.321999
438 2 55 23.504000 18.787001 43.657001
439 2 55 25.047001 19.559000 42.563999
440 2 55 24.518999 19.379999 40.598000
441 2 56 43.016998 33.514999 38.044998
442 2 56 41.617001 34.507999 39.115002
443 2 56 42.126999 36.486000 39.082001
444 2 56 43.043999 36.868999 40.881001
445 2 56 45.058998 36.840000 40.543999
446 2 56 45.729000 35.019001 41.187000
447 2 56 45.953999 33.858002 39.521000
448 2 56 44.304001 32.658001 39.417000
449 2 57 15.874000 21.211000 25.937000
450 2 57 13.856000 21.271000 25.820999
451 2 57 13.290000 23.198999 26.191000
452 2 57 12.672000 23.247000 28.150000
453 2 57 14.223000 24.000000 29.247000
454 2 57 15.145000 22.400999 30.125000
455 2 57 16.806999 22.000000 29.007999
456 2 57 16.332001 20.427000 27.794001
457 2 58 16.023001 13.283000 18.858999
458 2 58 14.973000 14.505000 20.080999
459 2 58 14.973000 16.358999 19.219999
460 2 58 16.412001 17.445000 20.205999
461 2 58 18.083000 17.429001 19.030001
462 2 58 19.341000 16.028999 19.827000
463 2 58 19.146000 14.349000 18.681999
464 2 58 17.902000 13.088000 19.698000
465 2 59 30.872000 29.687000 37.328999
466 2 59 29.499001 29.850000 38.805000
467 2 59 30.415001 29.284000 40.542000
468 2 59 29.820000 27.349001 40.896000
469 2 59 31.336000 26.132999 40.264999
470 2 59 30.781000 25.414000 38.432999
471 2 59 31.783001 26.523001 37.042000
472 2 59 30.462999 27.917000 36.342999
473 2 60 43.006001 13.906000 1.297000
474 2 60 41.630001 14.624000 0.001000
475 2 60 39.797001 14.363000 0.866000
476 2 60 38.992001 12.682000 0.001000
477 2 60 39.292000 11.138000 1.305000
478 2 60 40.900002 10.089000 0.604000
479 2 60 42.507000 10.667000 1.724000
480 2 60 43.539001 12.031000 0.608000
481 2 61 10.417000 4.398000 35.673000
482 2 61 9.448000 3.580000 34.098000
483 2 61 9.548000 1.551000 34.320000
484 2 61 11.054000 0.914000 33.075001
485 2 61 12.713000 0.639000 34.236000
486 2 61 13.894000 2.284000 33.960999
487 2 61 13.595000 3.495000 35.577999
488 2 61 12.288000 4.950000 34.987000
489 2 62 31.480000 27.488001 23.129000
490 2 62 33.148998 28.586000 22.815001
491 2 62 34.254002 28.502001 24.532000
492 2 62 33.895000 30.264000 25.528000
493 2 62 32.507999 29.861000 26.973000
494 2 62 30.709999 30.513000 26.250999
495 2 62 29.722000 28.861000 25.568001
496 2 62 29.962999 28.830999 23.539000
497 2 63 28.525000 7.730000 36.286999
498 2 63 29.664000 7.146000 34.721001
499 2 63 31.605000 7.573000 35.196999
500 2 63 32.057999 9.324000 34.221001
501 2 63 31.896000 10.831000 35.590000
502 2 63 30.089001 11.727000 35.257000
503 2 63 28.806999 11.001000 36.671001
504 2 63 27.694000 9.548000 35.761002
505 2 64 11.466000 0.000000 39.749001
506 2 64 13.479000 0.186000 39.683998
507 2 64 14.161000 0.000000 41.601002
508 2 64 14.514000 1.912000 42.268002
509 2 64 12.906000 2.455000 43.404999
510 2 64 11.735000 3.645000 42.226002
511 2 64 10.207000 2.472000 41.547001
512 2 64 10.697000 1.916000 39.643002
513 2 65 6.584000 16.903999 43.379002
514 2 65 7.709000 16.666000 45.042999
515 2 65 8.725000 14.906000 44.834000
516 2 65 7.696000 13.517000 45.945999
517 2 65 6.541000 12.447000 44.644001
518 2 65 4.646000 13.199000 44.796001
519 2 65 4.383000 14.445000 43.199001
520 2 65 4.659000 16.348000 43.889000
521 2 66 36.547001 13.265000 11.874000
522 2 66 35.644001 11.589000 12.555000
523 2 66 34.820000 10.650000 10.938000
524 2 66 32.820999 11.125000 10.960000
525 2 66 32.551998 12.638000 9.612000
526 2 66 32.438000 14.367000 10.695000
527 2 66 34.268002 15.264000 10.558000
528 2 66 35.264000 14.832000 12.288000
529 2 67 33.879002 35.083000 15.621000
530 2 67 32.243999 34.641998 16.726999
531 2 67 32.539001 32.783001 17.521000
532 2 67 31.468000 31.483000 16.344000
533 2 67 32.792999 30.615000 15.053000
534 2 67 32.582001 31.583000 13.265000
535 2 67 34.123001 32.917000 13.137000
536 2 67 33.362000 34.742001 13.649000
537 2 68 17.987000 13.305000 42.757999
538 2 68 18.068001 14.174000 40.933998
539 2 68 17.737000 12.704000 39.554001
540 2 68 19.584999 12.178000 38.825001
541 2 68 20.146999 10.471000 39.797001
542 2 68 21.464001 11.039000 41.254002
543 2 68 20.415001 11.077000 43.007000
544 2 68 19.944000 13.032000 43.365002
545 2 69 12.896000 20.024000 29.231001
546 2 69 11.902000 20.445999 27.521000
547 2 69 10.104000 21.257999 28.056000
548 2 69 8.723000 19.745001 27.888000
549 2 69 8.407000 19.014000 29.768999
550 2 69 9.498000 17.291000 29.914000
551 2 69 11.199000 17.761999 30.941000
552 2 69 12.678000 17.993999 29.549999
553 2 70 19.212000 2.681000 22.079000
554 2 70 19.334999 4.173000 23.438999
555 2 70 20.070000 5.813000 22.466999
556 2 70 22.069000 5.906000 22.934999
557 2 70 23.090000 5.109000 21.355000
558 2 70 23.591000 3.201000 21.889000
559 2 70 22.243999 1.966000 20.976999
560 2 70 20.856001 1.467000 22.389999
561 2 71 33.137001 16.249001 28.049000
562 2 71 34.974998 15.657000 27.452000
563 2 71 36.262001 17.193001 27.855000
564 2 71 36.555000 18.173000 26.073000
565 2 71 35.345001 19.820000 26.091000
566 2 71 33.708000 19.351000 24.961000
567 2 71 32.213001 18.875000 26.268999
568 2 71 32.126999 16.836000 26.344000
569 2 72 26.407000 28.840000 20.400999
570 2 72 25.132000 28.457001 18.878000
571 2 72 24.479000 26.535000 19.111000
572 2 72 25.580999 25.396000 17.804001
573 2 72 27.068001 24.511000 18.889999
574 2 72 28.764000 25.600000 18.549000
575 2 72 29.011000 26.819000 20.169001
576 2 72 28.315001 28.662001 19.628000
577 2 73 31.471001 13.433000 31.995001
578 2 73 30.701000 11.594000 31.655001
579 2 73 32.119999 10.236000 32.220001
580 2 73 33.036999 9.617000 30.488001
581 2 73 34.787998 10.659000 30.333000
582 2 73 34.450001 12.166000 28.995001
583 2 73 34.138000 13.861000 30.090000
584 2 73 32.116001 14.146000 30.165001
585 2 74 15.355000 44.105999 33.686001
586 2 74 16.933001 43.021999 34.335999
587 2 74 16.184000 41.474998 35.442001
588 2 74 16.399000 42.026001 37.410000
589 2 74 14.583000 42.720001 38.039001
590 2 74 14.697000 44.761002 38.000999
591 2 74 13.759000 45.367001 36.291000
592 2 74 15.228000 45.756001 34.924999
593 2 75 10.695000 38.277000 30.733999
594 2 75 12.315000 39.069000 29.818001
595 2 75 13.030000 40.547001 31.035000
596 2 75 12.349000 42.316002 30.243000
597 2 75 10.714000 42.869999 31.337000
598 2 75 9.073000 42.352001 30.233999
599 2 75 8.367000 40.605000 31.021999
600 2 75 9.039000 39.102001 29.812000
601 2 76 3.238000 22.372999 14.445000
602 2 76 2.955000 23.889000 15.753000
603 2 76 4.628000 25.061001 15.685000
604 2 76 5.759000 24.537001 17.318001
605 2 76 7.211000 23.261999 16.655001
606 2 76 6.592000 21.374001 17.135000
607 2 76 5.820000 20.561001 15.428000
608 2 76 3.789000 20.726999 15.566000
609 2 77 27.264999 15.153000 21.028999
610 2 77 26.858000 13.412000 20.086000
611 2 77 28.599001 12.344000 20.018000
612 2 77 29.355000 12.606000 18.125999
613 2 77 30.804001 14.041000 18.254000
614 2 77 29.959000 15.780000 17.589001
615 2 77 29.465000 16.861000 19.250000
616 2 77 27.462999 16.587000 19.552999
617 2 78 18.028000 8.419000 9.093000
618 2 78 19.997999 8.829000 9.291000
619 2 78 20.348000 9.152000 11.279000
620 2 78 20.417999 11.191000 11.521000
621 2 78 18.596001 11.771000 12.241000
622 2 78 17.555000 12.523000 10.650000
623 2 78 16.273001 11.053000 10.044000
624 2 78 17.132999 10.157000 8.422000
625 2 79 1.786000 17.048000 31.934999
626 2 79 2.998000 18.575001 31.396000
627 2 79 1.795000 20.131001 30.844000
628 2 79 1.746000 20.114000 28.790001
629 2 79 0.003000 19.202000 28.240999
630 2 79 0.488000 17.285000 27.723000
631 2 79 0.000000 16.107000 29.318001
632 2 79 1.737000 15.745000 30.330999
633 2 80 39.050999 25.827999 7.873000
634 2 80 38.124001 24.683001 9.259000
635 2 80 36.147999 24.601000 8.747000
636 2 80 35.187000 25.954000 9.959000
637 2 80 34.905998 27.650000 8.856000
638 2 80 36.362999 28.964001 9.430000
639 2 80 37.813999 28.891001 7.995000
640 2 80 39.299999 27.694000 8.726000
641 2 81 41.466999 11.256000 41.771000
642 2 81 40.764999 11.828000 43.578999
643 2 81 41.834000 13.475000 44.144001
644 2 81 43.252998 12.806000 45.472000
645 2 81 45.002998 12.621000 44.433998
646 2 81 45.220001 10.634000 44.008999
647 2 81 44.640999 10.385000 42.066002
648 2 81 42.733002 9.658000 42.112000
649 2 82 20.309000 16.653999 29.493999
650 2 82 21.281000 18.346001 30.027000
651 2 82 23.275000 17.903000 30.072001
652 2 82 23.750000 17.612000 32.049999
653 2 82 23.787001 15.594000 32.365002
654 2 82 22.014000 15.113000 33.262001
655 2 82 20.809999 14.343000 31.802999
656 2 82 19.546000 15.844000 31.236000
657 2 83 14.702000 10.187000 32.978001
658 2 83 15.758000 10.614000 34.648998
659 2 83 17.388000 9.382000 34.660999
660 2 83 16.934999 7.848000 35.951000
661 2 83 16.346001 6.260000 34.806999
662 2 83 14.303000 6.221000 34.875999
663 2 83 13.644000 7.060000 33.133999
664 2 83 13.127000 8.987000 33.570000
665 2 84 29.681999 11.756000 29.712000
666 2 84 30.436001 11.052000 27.972000
667 2 84 29.448000 12.006000 26.459000
668 2 84 28.021999 10.687000 25.788000
669 2 84 26.249001 11.236000 26.643999
670 2 84 25.940001 9.960000 28.209999
671 2 84 26.478001 10.970000 29.902000
672 2 84 28.353001 10.328000 30.396000
673 2 85 38.305000 21.421000 17.778999
674 2 85 39.695999 20.422001 16.704000
675 2 85 38.695999 19.087999 15.522000
676 2 85 38.848999 17.267000 16.462000
677 2 85 37.092999 16.961000 17.461000
678 2 85 37.453999 17.413000 19.421000
679 2 85 36.708000 19.288000 19.735001
680 2 85 38.297001 20.570000 19.663000
681 2 86 15.984000 28.395000 32.948002
682 2 86 14.544000 27.871000 31.628000
683 2 86 15.236000 26.247000 30.598000
684 2 86 15.917000 26.962000 28.796000
685 2 86 17.948000 27.127001 28.948000
686 2 86 18.347000 29.103001 29.287001
687 2 86 18.698999 29.292000 31.290001
688 2 86 16.976000 30.009001 32.122002
689 2 87 13.990000 28.764000 7.587000
690 2 87 14.332000 30.551001 8.472000
691 2 87 12.508000 31.355000 8.924000
692 2 87 12.112000 32.731998 7.451000
693 2 87 10.848000 31.836000 6.119000
694 2 87 11.997000 31.249001 4.533000
695 2 87 12.339000 29.250000 4.766000
696 2 87 14.214000 29.065001 5.555000
697 2 88 3.920000 26.145000 38.764000
698 2 88 4.592000 24.591000 39.869999
699 2 88 3.696000 22.905001 39.143002
700 2 88 2.143000 22.487000 40.423000
701 2 88 0.438000 23.190001 39.543999
702 2 88 0.011000 24.974001 40.446999
703 2 88 0.655000 26.440001 39.179001
704 2 88 2.460000 27.079000 39.889999
705 2 89 22.363001 24.912001 3.044000
706 2 89 24.003000 26.086000 2.894000
707 2 89 25.084000 25.406000 1.299000
708 2 89 26.599001 24.261000 2.083000
709 2 89 26.023001 22.308001 1.910000
710 2 89 25.346001 21.737000 3.752000
711 2 89 23.306999 21.808001 3.673000
712 2 89 22.747000 23.561001 4.561000
713 2 90 7.938000 38.540001 20.058001
714 2 90 9.422000 38.249001 18.714001
715 2 90 8.970000 39.373001 17.069000
716 2 90 8.161000 38.075001 15.696000
717 2 90 6.132000 38.284000 15.799000
718 2 90 5.441000 36.713001 16.910000
719 2 90 5.094000 37.432999 18.789000
720 2 90 6.700000 36.889999 19.930000
721 2 91 22.665001 11.283000 28.691999
722 2 91 23.650000 9.540000 28.408001
723 2 91 23.336000 8.982000 26.466999
724 2 91 21.860001 7.553000 26.517000
725 2 91 20.108999 8.485000 26.025999
726 2 91 19.117001 8.819000 27.782000
727 2 91 19.427000 10.780000 28.264000
728 2 91 20.907000 10.810000 29.671000
729 2 92 16.361000 21.155001 32.092999
730 2 92 16.224001 19.684999 30.711000
731 2 92 17.086000 18.018000 31.521000
732 2 92 18.974001 17.903999 30.716999
733 2 92 20.264000 18.659000 32.110001
734 2 92 20.698999 20.569000 31.524000
735 2 92 19.549000 21.808001 32.669998
736 2 92 17.948000 22.350000 31.521999
737 2 93 6.937000 19.233000 43.244999
738 2 93 8.012000 20.020000 41.723999
739 2 93 9.444000 18.650000 41.227001
740 2 93 11.181000 19.292000 42.115002
741 2 93 11.416000 18.201000 43.827000
742 2 93 10.804000 19.398001 45.367001
743 2 93 8.915000 18.798000 45.856998
744 2 93 7.633000 20.122000 44.976002
745 2 94 35.859001 27.052999 18.062000
746 2 94 35.800999 29.065001 18.256001
747 2 94 37.735001 29.714001 18.365000
748 2 94 38.115002 30.041000 20.358000
749 2 94 39.131001 28.408001 21.048000
750 2 94 37.766998 27.250999 22.037001
751 2 94 37.244999 25.743999 20.761000
752 2 94 35.453999 26.271999 19.931999
753 2 95 19.393999 25.540001 6.799000
754 2 95 18.097000 27.021000 6.337000
755 2 95 19.153999 28.454000 5.334000
756 2 95 19.559999 29.927999 6.706000
757 2 95 21.481001 29.641001 7.341000
758 2 95 21.358999 28.711000 9.158000
759 2 95 21.719000 26.729000 8.825000
760 2 95 19.899000 25.802000 8.786000
761 2 96 17.490999 16.261999 14.510000
762 2 96 16.065001 16.556999 15.912000
763 2 96 15.256000 18.402000 15.568000
764 2 96 16.135000 19.673000 16.923000
765 2 96 17.618000 20.670000 15.932000
766 2 96 19.374001 19.756001 16.441999
767 2 96 19.867001 18.528000 14.886000
768 2 96 19.304001 16.641001 15.428000
769 2 97 43.000000 37.526001 5.150000
770 2 97 43.437000 38.493999 3.429000
771 2 97 42.984001 40.466000 3.717000
772 2 97 41.155998 40.765999 2.828000
773 2 97 39.755001 40.724998 4.314000
774 2 97 38.894001 38.872002 4.250000
775 2 97 39.757999 37.775002 5.740000
776 2 97 41.175999 36.599998 4.855000
777 2 98 27.756001 14.939000 44.340000
778 2 98 28.243999 13.799000 45.937000
779 2 98 30.280001 13.621000 45.946999
780 2 98 30.695000 11.776000 45.143002
781 2 98 31.214001 12.079000 43.189999