LAMMPS data file. CGCMM style. atom_style charge generated by VMD/TopoTools v1.7 on Mon Apr 16 22:43:55 EDT 2018

 4096 atoms
 0 bonds
 0 angles
 0 dihedrals
 0 impropers
 2 atom types
 0 bond types
 0 angle types
 0 dihedral types
 0 improper types
 -0.500000 0.500000  xlo xhi
 -0.500000 0.500000  ylo yhi
 -0.500000 0.500000  zlo zhi

# Pair Coeffs
#
# 1  LI
# 2  S

 Masses

 1 6.941000 # LI
 2 32.064999 # S

 Atoms # charge

1 2 0.000000 48.858002 20.826000 39.736000 # S
2 2 0.000000 50.345001 19.486000 39.451000 # S
3 2 0.000000 52.094002 20.414000 39.958000 # S
4 2 0.000000 52.965000 20.995001 38.189999 # S
5 2 0.000000 52.546001 22.979000 37.939999 # S
6 2 0.000000 51.000999 23.083000 36.605999 # S
7 2 0.000000 49.304001 23.391001 37.700001 # S
8 2 0.000000 48.380001 21.577000 37.870998 # S
9 2 0.000000 32.387001 0.386000 3.530000 # S
10 2 0.000000 34.349998 0.722000 3.879000 # S
11 2 0.000000 34.755001 0.026000 5.757000 # S
12 2 0.000000 34.775002 1.675000 6.984000 # S
13 2 0.000000 32.960999 1.744000 7.922000 # S
14 2 0.000000 31.849001 3.145000 6.933000 # S
15 2 0.000000 30.589001 2.122000 5.693000 # S
16 2 0.000000 31.422001 2.189000 3.828000 # S
17 2 0.000000 58.497002 7.692000 34.976002 # S
18 2 0.000000 58.845001 5.706000 34.816002 # S
19 2 0.000000 60.008999 5.170000 36.407001 # S
20 2 0.000000 61.931999 5.050000 35.693001 # S
21 2 0.000000 62.870998 6.790000 36.208000 # S
22 2 0.000000 62.881001 7.963000 34.534000 # S
23 2 0.000000 61.368000 9.316000 34.759998 # S
24 2 0.000000 59.792000 8.622000 33.660000 # S
25 2 0.000000 37.261002 52.393002 54.973999 # S
26 2 0.000000 38.599998 53.453999 53.891998 # S
27 2 0.000000 38.250999 55.431000 54.275002 # S
28 2 0.000000 37.165001 56.137001 52.680000 # S
29 2 0.000000 35.206001 56.174999 53.259998 # S
30 2 0.000000 34.327999 54.516998 52.450001 # S
31 2 0.000000 34.208000 53.130001 53.944000 # S
32 2 0.000000 35.762001 51.833000 53.666000 # S
33 2 0.000000 28.353001 30.987000 42.736000 # S
34 2 0.000000 30.299999 31.250000 42.258999 # S
35 2 0.000000 31.180000 32.210999 43.834000 # S
36 2 0.000000 31.305000 34.189999 43.296001 # S
37 2 0.000000 29.747000 35.154999 44.200001 # S
38 2 0.000000 28.306999 35.400002 42.770000 # S
39 2 0.000000 26.914000 33.941002 43.088001 # S
40 2 0.000000 27.301001 32.458000 41.736000 # S
41 2 0.000000 25.400999 36.304001 4.386000 # S
42 2 0.000000 24.224001 37.479000 3.235000 # S
43 2 0.000000 22.372999 36.612999 3.188000 # S
44 2 0.000000 22.257000 35.612000 1.397000 # S
45 2 0.000000 22.638000 33.643002 1.788000 # S
46 2 0.000000 24.580999 33.308998 1.249000 # S
47 2 0.000000 25.677000 33.330002 2.972000 # S
48 2 0.000000 26.548000 35.174000 3.090000 # S
49 2 0.000000 5.935000 24.101999 20.497000 # S
50 2 0.000000 6.192000 23.108000 22.240000 # S
51 2 0.000000 4.987000 24.004999 23.625000 # S
52 2 0.000000 6.207000 25.233999 24.732000 # S
53 2 0.000000 5.966000 27.128000 24.004000 # S
54 2 0.000000 7.573000 27.495001 22.795000 # S
55 2 0.000000 6.931000 27.230000 20.875000 # S
56 2 0.000000 7.554000 25.371000 20.301001 # S
57 2 0.000000 21.431999 12.207000 58.042999 # S
58 2 0.000000 21.431999 13.746000 56.730999 # S
59 2 0.000000 19.836000 14.933000 57.199001 # S
60 2 0.000000 18.356001 14.454000 55.856998 # S
61 2 0.000000 17.073999 13.181000 56.811001 # S
62 2 0.000000 17.540001 11.297000 56.169998 # S
63 2 0.000000 18.667000 10.441000 57.641998 # S
64 2 0.000000 20.615999 10.589000 57.048000 # S
65 2 0.000000 1.915000 17.906000 54.977001 # S
66 2 0.000000 1.939000 19.754000 55.797001 # S
67 2 0.000000 3.706000 20.628000 55.255001 # S
68 2 0.000000 4.953000 20.445000 56.877998 # S
69 2 0.000000 6.182000 18.855000 56.511002 # S
70 2 0.000000 5.429000 17.280001 57.574001 # S
71 2 0.000000 4.390000 16.124001 56.249001 # S
72 2 0.000000 2.416000 16.587999 56.488998 # S
73 2 0.000000 12.740000 53.761002 11.038000 # S
74 2 0.000000 13.069000 52.923000 12.849000 # S
75 2 0.000000 13.168000 50.901001 12.566000 # S
76 2 0.000000 11.334000 50.157001 13.120000 # S
77 2 0.000000 10.267000 49.860001 11.403000 # S
78 2 0.000000 8.987000 51.445000 11.232000 # S
79 2 0.000000 9.822000 52.727001 9.880000 # S
80 2 0.000000 10.724000 54.209999 10.958000 # S
81 2 0.000000 15.984000 33.875000 17.402000 # S
82 2 0.000000 17.929001 34.231998 16.980000 # S
83 2 0.000000 17.979000 35.762001 15.626000 # S
84 2 0.000000 18.264999 34.889000 13.788000 # S
85 2 0.000000 16.437000 34.789001 12.883000 # S
86 2 0.000000 15.780000 32.867001 13.109000 # S
87 2 0.000000 14.442000 32.883999 14.652000 # S
88 2 0.000000 15.441000 32.212002 16.302000 # S
89 2 0.000000 42.005001 54.030998 0.171000 # S
90 2 0.000000 39.986000 54.159000 0.180000 # S
91 2 0.000000 39.502998 55.969002 0.996000 # S
92 2 0.000000 38.981998 55.592999 2.949000 # S
93 2 0.000000 40.606998 56.050999 4.099000 # S
94 2 0.000000 41.516998 54.277000 4.551000 # S
95 2 0.000000 43.109001 54.098000 3.285000 # S
96 2 0.000000 42.523998 52.845001 1.782000 # S
97 2 0.000000 38.527000 12.267000 23.931999 # S
98 2 0.000000 36.648998 13.017000 23.933001 # S
99 2 0.000000 35.881001 12.716000 22.063000 # S
100 2 0.000000 36.054001 14.512000 21.079000 # S
101 2 0.000000 37.713001 14.386000 19.893000 # S
102 2 0.000000 39.206001 15.378000 20.875000 # S
103 2 0.000000 40.367001 13.953000 21.764999 # S
104 2 0.000000 39.803001 13.880000 23.728001 # S
105 2 0.000000 35.457001 5.912000 37.706001 # S
106 2 0.000000 35.173000 6.431000 39.639999 # S
107 2 0.000000 34.868000 4.702000 40.687000 # S
108 2 0.000000 32.837002 4.551000 40.958000 # S
109 2 0.000000 32.140999 3.250000 39.544998 # S
110 2 0.000000 31.327999 4.391000 38.056000 # S
111 2 0.000000 32.714001 4.470000 36.557999 # S
112 2 0.000000 33.667000 6.268000 36.736000 # S
113 2 0.000000 12.363000 45.511002 32.207001 # S
114 2 0.000000 13.121000 46.438999 30.577999 # S
115 2 0.000000 13.895000 44.987999 29.365000 # S
116 2 0.000000 15.924000 44.998001 29.688000 # S
117 2 0.000000 16.332001 43.464001 30.974001 # S
118 2 0.000000 16.563999 44.303001 32.824001 # S
119 2 0.000000 14.813000 43.995998 33.827999 # S
120 2 0.000000 13.758000 45.742001 33.715000 # S
121 2 0.000000 47.030998 54.824001 60.617001 # S
122 2 0.000000 48.702000 54.130001 61.521000 # S
123 2 0.000000 48.362999 52.169998 61.986000 # S
124 2 0.000000 47.880001 52.132000 63.983002 # S
125 2 0.000000 45.842999 52.012001 64.101997 # S
126 2 0.000000 45.173000 53.898998 64.513000 # S
127 2 0.000000 44.507999 54.680000 62.747002 # S
128 2 0.000000 45.993999 55.896000 62.048000 # S
129 2 0.000000 15.308000 41.047001 45.930000 # S
130 2 0.000000 13.369000 41.401001 45.476002 # S
131 2 0.000000 12.273000 39.887001 46.301998 # S
132 2 0.000000 11.865000 38.577999 44.771000 # S
133 2 0.000000 13.205000 37.042999 44.924000 # S
134 2 0.000000 14.658000 37.400002 43.530998 # S
135 2 0.000000 16.245001 38.202000 44.534000 # S
136 2 0.000000 16.164000 40.222000 44.240002 # S
137 2 0.000000 8.314000 40.069000 28.556999 # S
138 2 0.000000 8.241000 39.061001 30.309000 # S
139 2 0.000000 6.531000 39.641998 31.264999 # S
140 2 0.000000 7.105000 41.028000 32.668999 # S
141 2 0.000000 6.717000 42.873001 31.881001 # S
142 2 0.000000 8.502000 43.599998 31.198999 # S
143 2 0.000000 8.517000 43.307999 29.177000 # S
144 2 0.000000 9.635000 41.632999 28.834999 # S
145 2 0.000000 37.292000 21.854000 20.796000 # S
146 2 0.000000 37.299999 20.099001 19.791000 # S
147 2 0.000000 35.757999 20.167000 18.452000 # S
148 2 0.000000 34.222000 19.094000 19.297001 # S
149 2 0.000000 32.930000 20.447001 20.120001 # S
150 2 0.000000 33.317001 20.472000 22.127001 # S
151 2 0.000000 34.462002 22.125999 22.481001 # S
152 2 0.000000 36.395000 21.481001 22.620001 # S
153 2 0.000000 4.901000 9.475000 55.625000 # S
154 2 0.000000 5.158000 9.855000 53.655998 # S
155 2 0.000000 5.487000 11.863000 53.469002 # S
156 2 0.000000 3.698000 12.681000 52.875000 # S
157 2 0.000000 2.818000 13.469000 54.542000 # S
158 2 0.000000 1.402000 12.123000 55.143002 # S
159 2 0.000000 2.215000 11.075000 56.696999 # S
160 2 0.000000 2.864000 9.297000 55.928001 # S
161 2 0.000000 35.422001 13.195000 41.754002 # S
162 2 0.000000 37.237999 12.470000 42.271000 # S
163 2 0.000000 37.030998 11.582000 44.099998 # S
164 2 0.000000 37.742001 12.935000 45.473999 # S
165 2 0.000000 36.118999 13.875000 46.283001 # S
166 2 0.000000 35.973999 15.689000 45.354000 # S
167 2 0.000000 34.514999 15.505000 43.936001 # S
168 2 0.000000 35.466000 15.223000 42.150002 # S
169 2 0.000000 28.327000 23.371000 33.058998 # S
170 2 0.000000 26.829000 23.733000 34.368000 # S
171 2 0.000000 25.077000 23.292000 33.412998 # S
172 2 0.000000 24.292999 25.090000 32.799999 # S
173 2 0.000000 24.757999 25.299999 30.820999 # S
174 2 0.000000 26.361000 26.566000 30.733000 # S
175 2 0.000000 28.014000 25.396999 30.466000 # S
176 2 0.000000 28.898001 25.205999 32.299000 # S
177 2 0.000000 6.364000 48.459000 50.655998 # S
178 2 0.000000 7.256000 47.775002 52.338001 # S
179 2 0.000000 8.411000 49.296001 53.064999 # S
180 2 0.000000 10.337000 48.877998 52.480999 # S
181 2 0.000000 10.722000 50.019001 50.831001 # S
182 2 0.000000 10.522000 48.785999 49.212002 # S
183 2 0.000000 8.683000 49.168999 48.410999 # S
184 2 0.000000 7.439000 47.687000 49.068001 # S
185 2 0.000000 27.754999 33.195999 38.106998 # S
186 2 0.000000 28.905001 34.778999 38.619999 # S
187 2 0.000000 29.672001 35.549000 36.889999 # S
188 2 0.000000 31.597000 34.840000 36.755001 # S
189 2 0.000000 31.559999 33.255001 35.466000 # S
190 2 0.000000 31.577999 31.568001 36.619999 # S
191 2 0.000000 29.653000 30.889999 36.693001 # S
192 2 0.000000 28.882999 31.506001 38.483002 # S
193 2 0.000000 6.823000 6.510000 7.659000 # S
194 2 0.000000 7.842000 7.385000 9.171000 # S
195 2 0.000000 9.583000 6.340000 9.405000 # S
196 2 0.000000 9.285000 5.087000 11.007000 # S
197 2 0.000000 8.844000 3.242000 10.248000 # S
198 2 0.000000 6.814000 3.032000 10.376000 # S
199 2 0.000000 6.069000 3.408000 8.512000 # S
200 2 0.000000 5.373000 5.328000 8.536000 # S
201 2 0.000000 59.122002 2.270000 8.505000 # S
202 2 0.000000 58.609001 4.199000 8.826000 # S
203 2 0.000000 57.255001 4.214000 10.357000 # S
204 2 0.000000 55.404999 4.397000 9.480000 # S
205 2 0.000000 54.587002 2.526000 9.415000 # S
206 2 0.000000 54.844002 1.846000 7.505000 # S
207 2 0.000000 56.448002 0.582000 7.546000 # S
208 2 0.000000 58.049000 1.645000 6.853000 # S
209 2 0.000000 30.242001 42.282001 7.083000 # S
210 2 0.000000 31.742001 43.179001 8.100000 # S
211 2 0.000000 31.200001 43.205002 10.070000 # S
212 2 0.000000 30.496000 45.098999 10.443000 # S
213 2 0.000000 28.457001 45.001999 10.381000 # S
214 2 0.000000 27.895000 45.720001 8.552000 # S
215 2 0.000000 27.493999 44.094002 7.383000 # S
216 2 0.000000 29.139000 43.797001 6.209000 # S
217 2 0.000000 52.215000 16.729000 28.193001 # S
218 2 0.000000 52.208000 18.419001 29.304001 # S
219 2 0.000000 54.049999 18.572001 30.174999 # S
220 2 0.000000 53.826000 17.906000 32.105999 # S
221 2 0.000000 54.497002 15.976000 32.153999 # S
222 2 0.000000 52.838001 14.783000 32.105000 # S
223 2 0.000000 52.647999 14.125000 30.181000 # S
224 2 0.000000 51.222000 15.294000 29.301001 # S
225 2 0.000000 46.683998 23.826000 13.425000 # S
226 2 0.000000 46.870998 25.601000 12.472000 # S
227 2 0.000000 45.292000 26.761999 13.052000 # S
228 2 0.000000 43.921001 26.663000 11.525000 # S
229 2 0.000000 42.501999 25.302000 12.083000 # S
230 2 0.000000 42.943001 23.566999 11.096000 # S
231 2 0.000000 43.893002 22.356001 12.440000 # S
232 2 0.000000 45.891998 22.503000 12.048000 # S
233 2 0.000000 52.431999 31.570999 36.644001 # S
234 2 0.000000 50.675999 31.850000 35.680000 # S
235 2 0.000000 49.457001 30.290001 36.188999 # S
236 2 0.000000 49.530998 28.971001 34.615002 # S
237 2 0.000000 50.839001 27.490999 35.136002 # S
238 2 0.000000 52.598999 27.909000 34.185001 # S
239 2 0.000000 53.823002 28.771000 35.575001 # S
240 2 0.000000 53.744999 30.787001 35.254002 # S
241 2 0.000000 30.948999 21.980000 17.111000 # S
242 2 0.000000 29.240000 22.094999 18.184999 # S
243 2 0.000000 27.809999 22.882999 16.955999 # S
244 2 0.000000 27.660999 24.870001 17.457001 # S
245 2 0.000000 28.740999 25.917999 16.075001 # S
246 2 0.000000 30.528999 26.371000 16.955999 # S
247 2 0.000000 31.889999 25.025999 16.242001 # S
248 2 0.000000 32.109001 23.594000 17.681000 # S
249 2 0.000000 29.584000 2.468000 27.934000 # S
250 2 0.000000 31.039000 2.819000 26.573999 # S
251 2 0.000000 30.441999 4.422000 25.455999 # S
252 2 0.000000 29.694000 3.649000 23.705000 # S
253 2 0.000000 27.659000 3.627000 23.882999 # S
254 2 0.000000 27.136000 1.704000 24.341000 # S
255 2 0.000000 26.797001 1.655000 26.355000 # S
256 2 0.000000 28.479000 0.877000 27.212999 # S
257 2 0.000000 28.047001 34.120998 51.726002 # S
258 2 0.000000 29.162001 32.606998 52.471001 # S
259 2 0.000000 29.608000 33.085999 54.407001 # S
260 2 0.000000 31.528999 33.814999 54.386002 # S
261 2 0.000000 31.396000 35.854000 54.418999 # S
262 2 0.000000 31.693001 36.487000 52.498001 # S
263 2 0.000000 29.847000 36.893002 51.723999 # S
264 2 0.000000 29.322001 35.280998 50.584999 # S
265 2 0.000000 31.091999 46.882999 14.743000 # S
266 2 0.000000 30.499001 46.061001 12.993000 # S
267 2 0.000000 31.847000 44.597000 12.530000 # S
268 2 0.000000 33.116001 45.410999 11.134000 # S
269 2 0.000000 34.807999 45.984001 12.126000 # S
270 2 0.000000 34.661999 48.005001 12.403000 # S
271 2 0.000000 34.055000 48.287998 14.332000 # S
272 2 0.000000 32.046001 48.653000 14.266000 # S
273 2 0.000000 47.856998 16.941000 23.239000 # S
274 2 0.000000 48.842999 18.551001 22.514999 # S
275 2 0.000000 48.423000 20.120001 23.754000 # S
276 2 0.000000 46.967999 21.219999 22.806999 # S
277 2 0.000000 45.181999 20.701000 23.650999 # S
278 2 0.000000 44.290001 19.389000 22.362000 # S
279 2 0.000000 44.605000 17.518999 23.121000 # S
280 2 0.000000 46.165001 16.716999 22.073000 # S
281 2 0.000000 6.734000 46.028999 15.586000 # S
282 2 0.000000 7.218000 47.360001 14.143000 # S
283 2 0.000000 5.749000 48.779999 14.119000 # S
284 2 0.000000 4.513000 48.296001 12.550000 # S
285 2 0.000000 2.896000 47.327999 13.339000 # S
286 2 0.000000 3.205000 45.331001 13.028000 # S
287 2 0.000000 3.880000 44.562000 14.795000 # S
288 2 0.000000 5.909000 44.396000 14.625000 # S
289 2 0.000000 3.435000 49.591000 31.188999 # S
290 2 0.000000 4.916000 50.967999 31.212999 # S
291 2 0.000000 4.295000 52.498001 32.417000 # S
292 2 0.000000 3.627000 53.979000 31.159000 # S
293 2 0.000000 1.590000 53.840000 31.100000 # S
294 2 0.000000 1.123000 52.875999 29.358999 # S
295 2 0.000000 0.727000 50.933998 29.854000 # S
296 2 0.000000 2.410000 49.862999 29.415001 # S
297 2 0.000000 4.713000 35.743999 6.857000 # S
298 2 0.000000 3.865000 36.595001 5.230000 # S
299 2 0.000000 1.952000 35.884998 5.110000 # S
300 2 0.000000 1.983000 34.401001 3.689000 # S
301 2 0.000000 2.069000 32.619999 4.686000 # S
302 2 0.000000 4.017000 32.006001 4.614000 # S
303 2 0.000000 4.843000 32.470001 6.424000 # S
304 2 0.000000 5.897000 34.200001 6.160000 # S
305 2 0.000000 34.743999 47.542000 23.985001 # S
306 2 0.000000 33.522999 48.911999 24.837000 # S
307 2 0.000000 34.381001 50.743999 24.547001 # S
308 2 0.000000 35.313999 51.222000 26.315001 # S
309 2 0.000000 37.297001 50.791000 26.080000 # S
310 2 0.000000 37.616001 48.997002 27.004999 # S
311 2 0.000000 37.662998 47.581001 25.534000 # S
312 2 0.000000 35.827000 46.686001 25.524000 # S
313 2 0.000000 61.876999 42.019001 41.069000 # S
314 2 0.000000 62.000999 40.185001 40.224998 # S
315 2 0.000000 60.495998 40.053001 38.849998 # S
316 2 0.000000 58.993000 38.980000 39.750999 # S
317 2 0.000000 57.612000 40.330002 40.418999 # S
318 2 0.000000 57.941002 40.553001 42.424000 # S
319 2 0.000000 58.991001 42.289001 42.654999 # S
320 2 0.000000 60.949001 41.761002 42.897999 # S
321 2 0.000000 24.552999 59.995998 62.316002 # S
322 2 0.000000 26.573999 59.973000 62.257999 # S
323 2 0.000000 27.165001 61.658001 61.264000 # S
324 2 0.000000 27.608999 61.063999 59.348000 # S
325 2 0.000000 25.992001 61.529999 58.188999 # S
326 2 0.000000 24.947001 59.792999 57.924999 # S
327 2 0.000000 23.378000 59.851002 59.230999 # S
328 2 0.000000 23.909000 58.705002 60.835999 # S
329 2 0.000000 53.298000 40.758999 61.069000 # S
330 2 0.000000 53.816002 41.918999 62.643002 # S
331 2 0.000000 55.858002 41.980000 62.698002 # S
332 2 0.000000 56.429001 40.639999 64.147003 # S
333 2 0.000000 56.987000 38.924000 63.188000 # S
334 2 0.000000 55.414001 37.629002 63.352001 # S
335 2 0.000000 54.417999 37.691002 61.570000 # S
336 2 0.000000 52.800999 38.909000 61.844002 # S
337 2 0.000000 22.656000 41.630001 57.209000 # S
338 2 0.000000 24.382999 40.577999 57.196999 # S
339 2 0.000000 23.879000 38.598000 57.153000 # S
340 2 0.000000 24.070999 37.918999 59.083000 # S
341 2 0.000000 22.195000 37.882000 59.893002 # S
342 2 0.000000 22.032000 39.556000 61.055000 # S
343 2 0.000000 20.976000 40.923000 59.966000 # S
344 2 0.000000 22.341000 42.216000 59.166000 # S
345 2 0.000000 5.236000 6.786000 47.992001 # S
346 2 0.000000 7.083000 7.011000 48.784000 # S
347 2 0.000000 8.426000 6.503000 47.330002 # S
348 2 0.000000 9.031000 4.586000 47.756001 # S
349 2 0.000000 7.968000 3.339000 46.535000 # S
350 2 0.000000 6.461000 2.557000 47.673000 # S
351 2 0.000000 4.773000 3.608000 47.209000 # S
352 2 0.000000 4.512000 4.983000 48.698002 # S
353 2 0.000000 22.028000 4.003000 18.424000 # S
354 2 0.000000 22.732000 2.830000 16.936001 # S
355 2 0.000000 24.679001 2.396000 17.382000 # S
356 2 0.000000 25.822001 3.664000 16.237000 # S
357 2 0.000000 26.392000 5.209000 17.445000 # S
358 2 0.000000 25.156000 6.777000 17.007000 # S
359 2 0.000000 23.738001 6.831000 18.476000 # S
360 2 0.000000 22.066000 5.942000 17.709999 # S
361 2 0.000000 12.069000 14.102000 9.248000 # S
362 2 0.000000 10.048000 14.033000 9.265000 # S
363 2 0.000000 9.516000 12.064000 9.400000 # S
364 2 0.000000 9.014000 11.478000 7.495000 # S
365 2 0.000000 10.630000 10.490000 6.728000 # S
366 2 0.000000 11.592000 11.814000 5.503000 # S
367 2 0.000000 13.184000 12.536000 6.560000 # S
368 2 0.000000 12.630000 14.367000 7.276000 # S
369 2 0.000000 8.685000 42.833000 14.811000 # S
370 2 0.000000 8.513000 41.570000 13.241000 # S
371 2 0.000000 9.415000 39.817001 13.780000 # S
372 2 0.000000 11.275000 39.840000 12.906000 # S
373 2 0.000000 12.606000 40.408001 14.349000 # S
374 2 0.000000 13.006000 42.386002 14.023000 # S
375 2 0.000000 11.886000 43.438000 15.370000 # S
376 2 0.000000 10.243000 44.116001 14.362000 # S
377 2 0.000000 44.629002 28.716999 32.921001 # S
378 2 0.000000 46.633999 28.490000 33.055000 # S
379 2 0.000000 47.306999 27.993000 31.190001 # S
380 2 0.000000 47.584000 25.957001 31.207001 # S
381 2 0.000000 45.948002 25.124001 30.312000 # S
382 2 0.000000 44.743999 24.445000 31.819000 # S
383 2 0.000000 43.265999 25.834000 32.056000 # S
384 2 0.000000 43.791000 26.980000 33.664001 # S
385 2 0.000000 46.757999 39.480999 42.502998 # S
386 2 0.000000 45.463001 40.841999 41.752998 # S
387 2 0.000000 43.671001 40.543999 42.689999 # S
388 2 0.000000 42.512001 39.469002 41.376999 # S
389 2 0.000000 42.598000 37.514999 41.966999 # S
390 2 0.000000 43.933998 36.591000 40.727001 # S
391 2 0.000000 45.688000 36.443001 41.763000 # S
392 2 0.000000 46.884998 37.962002 41.106998 # S
393 2 0.000000 36.969002 8.606000 46.870998 # S
394 2 0.000000 36.195000 10.414000 46.396999 # S
395 2 0.000000 34.245998 10.413000 47.013000 # S
396 2 0.000000 33.118000 10.055000 45.333000 # S
397 2 0.000000 32.623001 8.073000 45.356998 # S
398 2 0.000000 33.897999 7.140000 44.060001 # S
399 2 0.000000 35.348999 6.262000 45.196999 # S
400 2 0.000000 36.974998 7.496000 45.126999 # S
401 2 0.000000 22.351000 34.481998 6.900000 # S
402 2 0.000000 24.052999 33.755001 7.716000 # S
403 2 0.000000 25.448999 33.679001 6.226000 # S
404 2 0.000000 25.511999 31.722000 5.603000 # S
405 2 0.000000 24.389999 31.599001 3.900000 # S
406 2 0.000000 22.583000 30.816999 4.450000 # S
407 2 0.000000 21.282000 32.387001 4.579000 # S
408 2 0.000000 21.122999 32.854000 6.561000 # S
409 2 0.000000 28.892000 2.955000 20.031000 # S
410 2 0.000000 28.653999 1.522000 18.624001 # S
411 2 0.000000 30.039000 0.070000 19.006001 # S
412 2 0.000000 31.583000 0.394000 17.688999 # S
413 2 0.000000 33.046001 1.384000 18.715000 # S
414 2 0.000000 32.887001 3.355000 18.197001 # S
415 2 0.000000 31.903000 4.283000 19.728001 # S
416 2 0.000000 29.958000 4.484000 19.136000 # S
417 2 0.000000 22.832001 51.955002 41.730000 # S
418 2 0.000000 24.756001 52.574001 41.811001 # S
419 2 0.000000 24.952000 53.702000 43.504002 # S
420 2 0.000000 24.877001 55.662998 42.895000 # S
421 2 0.000000 22.978001 56.327999 43.251999 # S
422 2 0.000000 21.999001 56.280998 41.458000 # S
423 2 0.000000 20.855000 54.589001 41.460999 # S
424 2 0.000000 21.875000 53.189999 40.376999 # S
425 2 0.000000 32.926998 43.709999 32.452999 # S
426 2 0.000000 31.316999 42.918999 33.388000 # S
427 2 0.000000 29.743999 43.049999 32.090000 # S
428 2 0.000000 28.650000 44.685001 32.681999 # S
429 2 0.000000 29.171000 46.230000 31.451000 # S
430 2 0.000000 30.489000 47.389999 32.498001 # S
431 2 0.000000 32.355999 46.903999 31.827000 # S
432 2 0.000000 33.158001 45.623001 33.201000 # S
433 2 0.000000 32.987999 26.083000 59.896999 # S
434 2 0.000000 34.287998 26.381001 58.376999 # S
435 2 0.000000 34.939999 28.313000 58.514000 # S
436 2 0.000000 33.861000 29.378000 57.126999 # S
437 2 0.000000 32.355999 30.322001 58.137001 # S
438 2 0.000000 30.666000 29.215000 57.827999 # S
439 2 0.000000 30.389999 28.087999 59.508999 # S
440 2 0.000000 31.093000 26.218000 59.082001 # S
441 2 0.000000 60.533001 48.758999 52.953999 # S
442 2 0.000000 60.502998 50.780998 52.933998 # S
443 2 0.000000 62.446999 51.411999 52.957001 # S
444 2 0.000000 62.851002 51.943001 54.901001 # S
445 2 0.000000 63.853001 50.377998 55.750999 # S
446 2 0.000000 62.484001 49.351002 56.868999 # S
447 2 0.000000 61.930000 47.723999 55.764000 # S
448 2 0.000000 60.138000 48.187000 54.900002 # S
449 2 0.000000 60.240002 20.431999 65.875000 # S
450 2 0.000000 62.062000 19.558001 65.959999 # S
451 2 0.000000 63.033001 20.024000 64.222000 # S
452 2 0.000000 62.858002 18.372999 63.012001 # S
453 2 0.000000 61.339001 18.752001 61.700001 # S
454 2 0.000000 59.699001 17.756001 62.405998 # S
455 2 0.000000 58.536999 19.143000 63.353001 # S
456 2 0.000000 58.902000 18.945000 65.352997 # S
457 2 0.000000 25.237000 31.774000 37.891998 # S
458 2 0.000000 23.976000 31.423000 36.351002 # S
459 2 0.000000 23.971001 33.101002 35.183998 # S
460 2 0.000000 22.267000 34.136002 35.681000 # S
461 2 0.000000 22.823000 35.618999 36.971001 # S
462 2 0.000000 22.343000 34.966999 38.848000 # S
463 2 0.000000 24.076000 34.290001 39.692001 # S
464 2 0.000000 24.056000 32.255001 39.518002 # S
465 2 0.000000 29.158001 22.459999 28.528999 # S
466 2 0.000000 30.355000 21.895000 30.058001 # S
467 2 0.000000 30.187000 19.865999 30.233999 # S
468 2 0.000000 28.891001 19.534000 31.795000 # S
469 2 0.000000 27.062000 19.132000 30.978001 # S
470 2 0.000000 25.969000 20.853001 31.124001 # S
471 2 0.000000 26.023001 21.737000 29.284000 # S
472 2 0.000000 27.431999 23.212000 29.384001 # S
473 2 0.000000 43.764000 39.530998 54.907001 # S
474 2 0.000000 45.619999 38.738998 55.048000 # S
475 2 0.000000 46.945000 40.229000 54.598999 # S
476 2 0.000000 47.511002 39.919998 52.647999 # S
477 2 0.000000 46.416000 41.205002 51.497002 # S
478 2 0.000000 44.898998 40.105999 50.681000 # S
479 2 0.000000 43.230999 40.495998 51.792000 # S
480 2 0.000000 43.006001 38.928001 53.082001 # S
481 2 0.000000 60.324001 17.027000 2.269000 # S
482 2 0.000000 58.733002 18.268000 2.141000 # S
483 2 0.000000 59.319000 19.882999 1.035000 # S
484 2 0.000000 59.734001 21.378000 2.383000 # S
485 2 0.000000 61.762001 21.416000 2.626000 # S
486 2 0.000000 62.154999 20.443001 4.380000 # S
487 2 0.000000 62.769001 18.561001 3.880000 # S
488 2 0.000000 61.157001 17.332001 4.136000 # S
489 2 0.000000 13.268000 7.368000 48.041000 # S
490 2 0.000000 12.708000 7.263000 49.980999 # S
491 2 0.000000 14.147000 8.217000 51.075001 # S
492 2 0.000000 15.337000 6.740000 51.865002 # S
493 2 0.000000 16.999001 6.616000 50.682999 # S
494 2 0.000000 16.719000 5.006000 49.453999 # S
495 2 0.000000 16.121000 5.748000 47.646999 # S
496 2 0.000000 14.092000 5.532000 47.568001 # S
497 2 0.000000 43.735001 35.271000 38.085999 # S
498 2 0.000000 43.806000 35.219002 36.066002 # S
499 2 0.000000 45.152000 36.639000 35.476002 # S
500 2 0.000000 44.042999 38.266998 34.889999 # S
501 2 0.000000 44.056999 39.591000 36.445000 # S
502 2 0.000000 42.264999 39.376999 37.407001 # S
503 2 0.000000 42.622002 38.228001 39.056999 # S
504 2 0.000000 42.030998 36.328999 38.585999 # S
505 2 0.000000 44.682999 15.656000 51.673000 # S
506 2 0.000000 44.349998 13.787000 52.368999 # S
507 2 0.000000 44.476002 12.519000 50.771999 # S
508 2 0.000000 42.541000 12.110000 50.214001 # S
509 2 0.000000 42.113998 13.308000 48.615002 # S
510 2 0.000000 41.018002 14.874000 49.340000 # S
511 2 0.000000 42.303001 16.451000 49.521999 # S
512 2 0.000000 42.828999 16.552999 51.493000 # S
513 2 0.000000 20.737000 1.356000 57.070999 # S
514 2 0.000000 19.976000 0.236000 58.571999 # S
515 2 0.000000 17.982000 -0.001000 58.193001 # S
516 2 0.000000 17.007999 1.355000 59.390999 # S
517 2 0.000000 16.547001 2.965000 58.220001 # S
518 2 0.000000 17.945000 4.399000 58.627998 # S
519 2 0.000000 19.308001 4.335000 57.108002 # S
520 2 0.000000 20.913000 3.280000 57.805000 # S
521 2 0.000000 8.056000 25.155001 64.731003 # S
522 2 0.000000 9.800000 25.313999 63.720001 # S
523 2 0.000000 9.484000 24.547001 61.853001 # S
524 2 0.000000 10.259000 22.643999 61.879002 # S
525 2 0.000000 8.690000 21.363001 62.146000 # S
526 2 0.000000 8.703000 20.830999 64.120003 # S
527 2 0.000000 7.269000 21.959999 65.038002 # S
528 2 0.000000 8.240000 23.503000 65.959999 # S
529 2 0.000000 47.568001 19.014999 19.358000 # S
530 2 0.000000 46.125000 19.122000 17.945000 # S
531 2 0.000000 45.678001 17.205000 17.396999 # S
532 2 0.000000 46.674000 16.870001 15.631000 # S
533 2 0.000000 48.373001 15.831000 16.091000 # S
534 2 0.000000 49.902000 17.188000 16.087999 # S
535 2 0.000000 50.275002 17.652000 18.041000 # S
536 2 0.000000 49.353001 19.438000 18.405001 # S
537 2 0.000000 46.752998 46.757000 18.912001 # S
538 2 0.000000 47.363998 46.646000 20.837000 # S
539 2 0.000000 49.304001 47.285000 20.889000 # S
540 2 0.000000 50.460999 45.588001 20.954000 # S
541 2 0.000000 51.131001 45.247002 19.054001 # S
542 2 0.000000 49.945000 43.776001 18.275999 # S
543 2 0.000000 48.576000 44.702000 17.076000 # S
544 2 0.000000 46.847000 44.835999 18.155001 # S
545 2 0.000000 27.448999 17.507999 56.724998 # S
546 2 0.000000 28.601000 17.586000 58.384998 # S
547 2 0.000000 29.843000 15.965000 58.331001 # S
548 2 0.000000 29.013000 14.568000 59.589001 # S
549 2 0.000000 28.007000 13.231000 58.416000 # S
550 2 0.000000 26.028999 13.736000 58.523998 # S
551 2 0.000000 25.596001 14.773000 56.819000 # S
552 2 0.000000 25.618000 16.754000 57.317001 # S
553 2 0.000000 19.839001 27.989000 39.723000 # S
554 2 0.000000 18.493000 28.587999 41.108002 # S
555 2 0.000000 19.337999 28.273001 42.942001 # S
556 2 0.000000 18.527000 26.521999 43.650002 # S
557 2 0.000000 19.896000 25.046000 43.299999 # S
558 2 0.000000 19.264000 24.049999 41.630001 # S
559 2 0.000000 20.386999 24.749001 40.074001 # S
560 2 0.000000 19.233999 26.118000 39.088001 # S
561 2 0.000000 34.898998 8.694000 31.846001 # S
562 2 0.000000 34.754002 6.888000 32.744999 # S
563 2 0.000000 33.699001 5.673000 31.485001 # S
564 2 0.000000 31.778999 5.625000 32.215000 # S
565 2 0.000000 30.680000 6.934000 31.094000 # S
566 2 0.000000 30.500000 8.640000 32.205002 # S
567 2 0.000000 31.871000 9.963000 31.469000 # S
568 2 0.000000 33.476002 9.905000 32.730999 # S
569 2 0.000000 53.446999 26.554001 40.775002 # S
570 2 0.000000 53.783001 28.117001 39.537998 # S
571 2 0.000000 52.025002 29.146000 39.377998 # S
572 2 0.000000 51.186001 28.566999 37.592999 # S
573 2 0.000000 49.766998 27.163000 38.028000 # S
574 2 0.000000 50.605999 25.344000 37.620998 # S
575 2 0.000000 51.193001 24.558001 39.412998 # S
576 2 0.000000 53.202000 24.893999 39.569000 # S
577 2 0.000000 39.118000 37.750999 26.375999 # S
578 2 0.000000 37.629002 38.700001 25.389999 # S
579 2 0.000000 35.966000 38.598000 26.573000 # S
580 2 0.000000 34.814999 37.076000 25.809000 # S
581 2 0.000000 35.153000 35.430000 26.972000 # S
582 2 0.000000 36.465000 34.250000 25.941000 # S
583 2 0.000000 38.307999 34.570000 26.761000 # S
584 2 0.000000 39.279999 35.874001 25.525000 # S
585 2 0.000000 46.492001 21.413000 44.063000 # S
586 2 0.000000 48.098999 20.195999 44.219002 # S
587 2 0.000000 47.834000 18.676001 42.880001 # S
588 2 0.000000 47.150002 17.070999 43.966000 # S
589 2 0.000000 45.124001 17.000000 43.716000 # S
590 2 0.000000 44.300999 17.820000 45.396999 # S
591 2 0.000000 43.776001 19.733999 44.917000 # S
592 2 0.000000 45.248001 20.947001 45.646999 # S
593 2 0.000000 20.698000 63.111000 55.396000 # S
594 2 0.000000 21.576000 61.290001 55.341999 # S
595 2 0.000000 23.493999 61.568001 54.695000 # S
596 2 0.000000 23.500999 61.069000 52.701000 # S
597 2 0.000000 23.403999 62.817001 51.647999 # S
598 2 0.000000 21.461000 63.028000 51.049999 # S
599 2 0.000000 20.594000 64.356003 52.337002 # S
600 2 0.000000 19.537001 63.252998 53.692001 # S
601 2 0.000000 14.792000 57.214001 46.411999 # S
602 2 0.000000 16.288000 57.209000 45.051998 # S
603 2 0.000000 18.032000 57.499001 46.077000 # S
604 2 0.000000 18.507999 59.484001 45.841999 # S
605 2 0.000000 17.910999 60.446999 47.542000 # S
606 2 0.000000 16.136999 61.361000 47.099998 # S
607 2 0.000000 14.662000 60.176998 47.869999 # S
608 2 0.000000 13.916000 59.084000 46.313999 # S
609 2 0.000000 6.080000 34.068001 24.707001 # S
610 2 0.000000 6.158000 34.299999 22.698999 # S
611 2 0.000000 4.755000 33.049999 21.895000 # S