LAMMPS data file. CGCMM style. atom_style molecular generated by VMD/TopoTools v1.7 on Mon Apr 16 23:05:42 EDT 2018

 576 atoms
 2 atom types
 0 30 xlo xhi
 0 30 ylo yhi
 0 30 zlo zhi

 Masses

 1 6.941000 # LI
 2 32.064999 # S

 Atoms # molecular

1 2 1 11.320000 22.284000 28.371000
2 2 1 11.837000 20.332001 28.257999
3 2 1 13.802000 20.198999 28.805000
4 2 1 14.872000 20.059999 27.056000
5 2 1 15.609000 21.924000 26.657000
6 2 1 14.390000 22.738001 25.232000
7 2 1 13.123000 24.010000 26.205000
8 2 1 11.355000 23.011999 26.437000
9 2 2 23.337000 22.532000 42.625999
10 2 2 21.719000 21.875000 43.645000
11 2 2 20.066999 22.570999 42.664001
12 2 2 19.430000 24.218000 43.716000
13 2 2 20.120001 25.865000 42.723000
14 2 2 21.773001 26.506001 43.741001
15 2 2 23.396999 25.836000 42.700001
16 2 2 24.063000 24.164000 43.667000
17 2 3 40.574001 40.889999 55.278999
18 2 3 41.929001 39.622002 54.476002
19 2 3 43.709999 39.973000 55.415001
20 2 3 44.806999 41.148998 54.134998
21 2 3 44.630001 43.075001 54.792999
22 2 3 43.243000 43.974998 53.592999
23 2 3 41.491001 44.000999 54.641998
24 2 3 40.363998 42.449001 53.938000
25 2 4 50.898998 7.520000 63.341999
26 2 4 50.792999 6.545000 65.111000
27 2 4 51.238998 4.585000 64.744003
28 2 4 49.439999 3.595000 64.668999
29 2 4 48.971001 3.358000 62.694000
30 2 4 47.597000 4.804000 62.244999
31 2 4 48.612000 6.298000 61.292999
32 2 4 48.952999 7.754000 62.685001
33 2 5 39.620998 54.831001 59.300999
34 2 5 40.771999 53.335999 60.028999
35 2 5 40.521999 53.318001 62.056999
36 2 5 42.160999 54.278000 62.841000
37 2 5 41.584999 56.189999 63.271000
38 2 5 42.283001 57.362999 61.748001
39 2 5 40.698002 57.713001 60.507999
40 2 5 40.889000 56.422001 58.936001
41 2 6 19.961000 45.480999 53.450001
42 2 6 20.080999 44.391998 51.750000
43 2 6 21.695000 43.153999 51.944000
44 2 6 23.219999 44.035000 50.886002
45 2 6 24.407000 45.000999 52.240002
46 2 6 23.903000 46.980000 52.146999
47 2 6 22.674000 47.345001 53.737000
48 2 6 20.763000 47.335999 53.015999
49 2 7 19.365000 53.310001 31.979000
50 2 7 18.570999 53.290001 33.839001
51 2 7 17.326000 54.903999 33.977001
52 2 7 18.377001 56.349998 34.991001
53 2 7 19.113001 57.645000 33.592999
54 2 7 21.077999 57.151001 33.320999
55 2 7 21.170000 56.051998 31.601000
56 2 7 21.270000 54.091000 32.164001
57 2 8 52.143002 20.756001 35.498001
58 2 8 53.616001 20.347000 36.821999
59 2 8 54.074001 18.365999 36.618000
60 2 8 53.116001 17.398001 38.155998
61 2 8 51.408001 16.587000 37.381001
62 2 8 49.879002 17.836000 37.912998
63 2 8 49.465000 18.982000 36.273998
64 2 8 50.379002 20.785000 36.574001
65 2 9 21.906000 54.490002 36.313999
66 2 9 20.594999 53.976002 37.765999
67 2 9 20.667999 55.444000 39.187000
68 2 9 21.851999 54.714001 40.700001
69 2 9 23.708000 55.529999 40.452999
70 2 9 24.861000 54.091999 39.568001
71 2 9 24.957001 54.560001 37.583000
72 2 9 23.606001 53.358002 36.632000
73 2 10 7.667000 3.621000 56.708000
74 2 10 7.308000 2.306000 58.201000
75 2 10 5.521000 1.405000 57.791000
76 2 10 4.124000 2.347000 58.969002
77 2 10 3.162000 3.706000 57.785000
78 2 10 3.982000 5.530000 58.209999
79 2 10 5.310000 5.937000 56.713001
80 2 10 7.166000 5.489000 57.438000
81 2 11 21.117001 40.312000 6.951000
82 2 11 21.861000 38.561001 7.636000
83 2 11 22.191999 37.370998 6.007000
84 2 11 20.600000 36.075001 5.914000
85 2 11 19.311001 36.813000 4.511000
86 2 11 17.812000 37.751999 5.535000
87 2 11 18.219999 39.751999 5.464000
88 2 11 19.073999 40.240002 7.254000
89 2 12 21.940001 17.452000 27.632999
90 2 12 20.385000 16.160999 27.563000
91 2 12 20.572001 15.089000 25.833000
92 2 12 19.268000 15.940000 24.490999
93 2 12 20.368999 17.166000 23.283001
94 2 12 20.082001 19.070000 23.969999
95 2 12 21.726999 19.544001 25.083000
96 2 12 21.202000 19.290001 27.041000
97 2 13 59.492001 57.904999 36.278000
98 2 13 60.849998 57.997002 34.782001
99 2 13 62.064999 59.592999 35.171001
100 2 13 61.396000 61.124001 33.974998
101 2 13 60.238998 62.334999 35.146000
102 2 13 58.294998 61.861000 34.729000
103 2 13 57.651001 60.648998 36.242001
104 2 13 57.749001 58.734001 35.539001
105 2 14 60.347000 33.965000 51.793999
106 2 14 61.141998 33.360001 50.035999
107 2 14 62.366001 34.860001 49.382000
108 2 14 61.296001 35.890999 47.962002
109 2 14 60.542000 37.556999 48.875000
110 2 14 58.584000 37.151001 49.299000
111 2 14 58.506001 36.660999 51.279999
112 2 14 58.431999 34.620998 51.375999
113 2 15 34.639999 13.508000 13.664000
114 2 15 34.390999 12.727000 11.816000
115 2 15 33.445000 10.930000 12.045000
116 2 15 34.908001 9.494000 11.902000
117 2 15 35.389000 8.938000 13.808000
118 2 15 37.124001 9.911000 14.277000
119 2 15 36.602001 11.516000 15.427000
120 2 15 36.604000 13.145000 14.194000
121 2 16 49.867001 35.567001 59.952999
122 2 16 51.534000 35.536999 58.807999
123 2 16 52.676998 37.134998 59.368000
124 2 16 52.348999 38.592999 57.959000
125 2 16 50.993000 39.898998 58.754002
126 2 16 49.182999 39.430000 57.929001
127 2 16 48.171001 38.333000 59.324001
128 2 16 48.367001 36.373001 58.782001
129 2 17 9.800000 34.919998 40.160999
130 2 17 11.478000 36.046001 40.060001
131 2 17 12.466000 35.498001 38.356998
132 2 17 13.965000 34.224998 38.952999
133 2 17 13.307000 32.321999 38.606998
134 2 17 12.682000 31.586000 40.409000
135 2 17 10.646000 31.737000 40.426998
136 2 17 10.191000 33.405998 41.513000
137 2 18 61.241001 42.278999 51.570999
138 2 18 59.636002 43.429001 51.134998
139 2 18 59.464001 43.472000 49.098999
140 2 18 60.272999 45.262001 48.495998
141 2 18 62.169998 44.870998 47.845001
142 2 18 63.428001 45.412998 49.362000
143 2 18 63.957001 43.692001 50.325001
144 2 18 62.792999 43.577000 52.000000
145 2 19 56.077999 46.046001 45.771000
146 2 19 56.304001 47.470001 44.353001
147 2 19 55.130001 49.051998 44.897999
148 2 19 53.422001 48.910999 43.764000
149 2 19 51.987999 48.061001 44.945999
150 2 19 51.881001 46.092999 44.404999
151 2 19 52.929001 45.042999 45.807999
152 2 19 54.763000 44.652000 44.998001
153 2 20 46.488998 27.827000 53.268002
154 2 20 46.511002 27.160999 55.176998
155 2 20 47.875999 28.292999 56.193001
156 2 20 49.584000 27.157000 56.312000
157 2 20 50.845001 27.818001 54.846001
158 2 20 50.694000 26.483999 53.305000
159 2 20 49.464001 27.336000 51.914001
160 2 20 47.620998 26.492001 52.167999
161 2 21 41.233002 53.797001 48.327000
162 2 21 42.651001 53.090000 49.584000
163 2 21 42.174999 53.749001 51.459000
164 2 21 43.384998 55.369999 51.819000
165 2 21 42.263000 57.042000 51.470001
166 2 21 42.792999 57.721001 49.616001
167 2 21 41.334000 57.101002 48.327999
168 2 21 42.055000 55.441002 47.381001
169 2 22 8.327000 33.063000 24.132999
170 2 22 7.020000 32.108002 22.920000
171 2 22 6.567000 30.326000 23.811001
172 2 22 7.707000 28.906000 22.858999
173 2 22 9.325000 28.540001 24.052000
174 2 22 10.889000 29.580000 23.245001
175 2 22 11.099000 31.278000 24.361000
176 2 22 10.202000 32.783001 23.309999
177 2 23 49.973999 22.290001 12.028000
178 2 23 50.169998 24.294001 12.212000
179 2 23 51.825001 24.837000 11.144000
180 2 23 53.337002 25.073000 12.516000
181 2 23 54.459000 23.365999 12.468000
182 2 23 53.882999 22.247000 14.079000
183 2 23 52.610001 20.816000 13.370000
184 2 23 50.715000 21.466000 13.772000
185 2 24 18.031000 0.564000 18.327000
186 2 24 17.041000 2.004000 19.344999
187 2 24 16.169001 3.227000 17.959000
188 2 24 17.385000 4.877000 17.809999
189 2 24 18.542000 4.618000 16.146000
190 2 24 20.370001 3.982000 16.802000
191 2 24 20.420000 1.959000 16.521000
192 2 24 20.025000 1.106000 18.334000
193 2 25 58.340000 56.803001 43.615002
194 2 25 59.604000 56.994999 42.048000
195 2 25 61.407001 57.592999 42.800999
196 2 25 61.513000 59.620998 42.483002
197 2 25 61.020000 60.528999 44.244999
198 2 25 59.075001 61.132000 44.063999
199 2 25 57.941002 59.751999 45.053001
200 2 25 57.166000 58.504002 43.632999
201 2 26 49.165001 12.874000 43.698002
202 2 26 50.219002 14.009000 44.998001
203 2 26 52.178001 13.916000 44.424000
204 2 26 53.074001 12.552000 45.674000
205 2 26 53.191002 10.789000 44.650002
206 2 26 51.659000 9.618000 45.330002
207 2 26 50.171001 9.735000 43.936001
208 2 26 48.804001 11.075000 44.650002
209 2 27 17.986000 41.844002 4.023000
210 2 27 16.665001 42.381001 2.588000
211 2 27 17.495001 41.879002 0.790000
212 2 27 18.271000 43.617001 0.014000
213 2 27 20.277000 43.599998 0.399000
214 2 27 20.568001 44.811001 2.020000
215 2 27 20.770000 43.583000 3.639000
216 2 27 18.964001 43.573002 4.595000
217 2 28 61.376999 60.921001 27.724001
218 2 28 60.585999 60.455002 29.525999
219 2 28 58.777000 61.396999 29.649000
220 2 28 59.085999 63.080002 30.787001
221 2 28 59.272999 64.650002 29.493000
222 2 28 61.273998 65.031998 29.327999
223 2 28 61.888000 64.182999 27.575001
224 2 28 62.772999 62.407001 28.063000
225 2 29 9.719000 22.184999 39.787998
226 2 29 9.496000 24.113001 40.354000
227 2 29 7.559000 24.340000 40.965000
228 2 29 6.564000 25.215000 39.395000
229 2 29 5.573000 23.725000 38.410000
230 2 29 6.694000 23.271000 36.762001
231 2 29 7.737000 21.573999 37.215000
232 2 29 9.625000 22.165001 37.723000
233 2 30 51.874001 3.136000 3.932000
234 2 30 50.410999 2.650000 5.241000
235 2 30 49.257000 1.219000 4.348000
236 2 30 47.594002 2.193000 3.633000
237 2 30 47.897999 2.508000 1.638000
238 2 30 48.479000 4.457000 1.439000
239 2 30 50.509998 4.442000 1.220000
240 2 30 51.299000 4.912000 3.044000
241 2 31 61.741001 40.630001 10.751000
242 2 31 62.411999 38.733002 10.552000
243 2 31 60.769001 37.528999 10.389000
244 2 31 60.486000 36.695999 12.246000
245 2 31 59.011002 37.770000 13.165000
246 2 31 59.943001 39.049000 14.459000
247 2 31 59.991001 40.874001 13.544000
248 2 31 61.866001 41.088001 12.762000
249 2 32 50.722000 40.650002 0.529000
250 2 32 50.002998 42.535999 0.654000
251 2 32 51.576000 43.799999 0.333000
252 2 32 52.174999 44.448002 2.189000
253 2 32 53.804001 43.331001 2.714000
254 2 32 53.132999 41.897999 4.009000
255 2 32 52.945000 40.175999 2.928000
256 2 32 50.963001 39.985001 2.471000
257 2 33 13.353000 41.441002 41.368999
258 2 33 14.777000 42.862000 41.577999
259 2 33 13.870000 44.668999 41.278000
260 2 33 14.321000 45.220001 39.349998
261 2 33 12.696000 44.757000 38.201000
262 2 33 13.139000 43.005001 37.247002
263 2 33 12.187000 41.521000 38.278000
264 2 33 13.591000 40.646000 39.476002
265 2 34 19.160999 16.183001 19.780001
266 2 34 19.625000 17.812000 18.674999
267 2 34 17.976000 19.018999 18.662001
268 2 34 17.042000 18.691000 16.861000
269 2 34 15.499000 17.399000 17.214001
270 2 34 16.142000 15.551000 16.622000
271 2 34 16.687000 14.551000 18.318001
272 2 34 18.723000 14.672000 18.440001
273 2 35 23.247999 49.405998 43.881001
274 2 35 21.643999 49.410000 42.648998
275 2 35 21.691000 47.660000 41.596001
276 2 35 22.471001 48.125000 39.751999
277 2 35 24.445000 47.596001 39.787998
278 2 35 25.503000 49.319000 40.087002
279 2 35 26.009001 49.356998 42.066002
280 2 35 24.677000 50.602001 42.987000
281 2 36 46.014999 36.380001 19.636000
282 2 36 45.061001 35.860001 21.341000
283 2 36 43.099998 36.388000 21.118000
284 2 36 42.868999 38.162998 22.129000
285 2 36 42.930000 39.655998 20.737000
286 2 36 44.808998 40.456001 20.823999
287 2 36 45.856998 39.660000 19.261999
288 2 36 47.000999 38.153000 20.032000
289 2 37 7.842000 11.878000 54.847000
290 2 37 7.138000 10.610000 56.257000
291 2 37 5.190000 10.212000 55.787998
292 2 37 4.053000 11.404000 57.015999
293 2 37 3.483000 13.028000 55.914001
294 2 37 4.725000 14.560000 56.451000
295 2 37 6.140000 14.707000 54.986000
296 2 37 7.811000 13.766000 55.688000
297 2 38 14.265000 14.735000 3.371000
298 2 38 14.328000 16.716999 3.770000
299 2 38 12.430000 17.290001 4.267000
300 2 38 11.642000 18.170000 2.586000
301 2 38 10.463000 16.770000 1.676000
302 2 38 11.557000 16.009001 0.125000
303 2 38 12.304000 14.218000 0.761000
304 2 38 14.242000 14.553000 1.312000
305 2 39 58.692001 44.701000 9.509000
306 2 39 56.976002 43.779999 10.054000
307 2 39 57.215000 41.786999 9.666000
308 2 39 56.245998 41.431999 7.889000
309 2 39 57.673000 41.395000 6.427000
310 2 39 57.599998 43.214001 5.498000
311 2 39 59.140999 44.319000 6.257000
312 2 39 58.334000 45.562000 7.664000
313 2 40 34.387001 15.806000 21.275999
314 2 40 35.261002 14.241000 22.212999
315 2 40 33.838001 13.383000 23.402000
316 2 40 34.195999 14.070000 25.306000
317 2 40 32.875999 15.591000 25.650000
318 2 40 33.916000 17.332001 25.391001
319 2 40 33.437000 18.027000 23.531000
320 2 40 34.978001 17.504000 22.296000
321 2 41 40.366001 41.412998 7.924000
322 2 41 41.601002 42.210999 6.536000
323 2 41 42.543999 40.654999 5.605000
324 2 41 44.410000 40.528000 6.457000
325 2 41 44.334999 39.023998 7.839000
326 2 41 44.139000 39.923000 9.665000
327 2 41 42.165001 39.791000 10.172000
328 2 41 41.327000 41.604000 9.744000
329 2 42 56.091999 11.751000 63.275002
330 2 42 57.758999 12.780000 62.772999
331 2 42 57.521999 13.400000 60.840000
332 2 42 58.598999 12.086000 59.683998
333 2 42 57.269001 10.743000 58.909000
334 2 42 57.421001 9.051000 60.044998
335 2 42 55.848000 9.078000 61.347000
336 2 42 56.577000 9.746000 63.133999
337 2 43 26.489000 35.355999 58.554001
338 2 43 25.775000 33.951000 57.287998
339 2 43 26.128000 32.131001 58.147999
340 2 43 27.805000 31.381001 57.227001
341 2 43 29.382999 31.739000 58.474998
342 2 43 30.350000 33.380001 57.734001
343 2 43 29.757000 34.971001 58.868999
344 2 43 28.319000 35.950001 57.798000
345 2 44 7.898000 17.016001 22.430000
346 2 44 8.306000 17.396000 20.486000
347 2 44 10.153000 16.613001 20.096001
348 2 44 11.466000 18.193001 20.153999
349 2 44 12.367000 18.153000 21.988001
350 2 44 11.431000 19.569000 23.125999
351 2 44 10.111000 18.575001 24.326000
352 2 44 8.271000 18.768999 23.459999
353 2 45 26.091999 9.488000 15.807000
354 2 45 26.316999 10.921000 17.216000
355 2 45 27.856001 12.122000 16.610001
356 2 45 29.503000 11.522000 17.681999
357 2 45 30.604000 10.312000 16.458000
358 2 45 30.193001 8.390000 17.018000
359 2 45 28.844999 7.664000 15.666000
360 2 45 27.006001 7.788000 16.548000
361 2 46 57.071999 23.145000 5.020000
362 2 46 55.851002 24.070999 6.339000
363 2 46 56.962002 24.471001 8.007000
364 2 46 56.488998 23.007999 9.371000
365 2 46 57.984001 21.617001 9.297000
366 2 46 57.277000 20.063000 8.173000
367 2 46 58.084000 20.275999 6.309000
368 2 46 56.641998 21.127001 5.140000
369 2 47 17.898001 46.575001 27.497999
370 2 47 16.243000 45.460999 27.829000
371 2 47 16.854000 43.730999 28.729000
372 2 47 16.900999 42.304001 27.250999
373 2 47 18.849001 42.118000 26.663000
374 2 47 19.034000 43.174000 24.922001
375 2 47 19.891001 44.962002 25.412001
376 2 47 18.379000 46.332001 25.502001
377 2 48 8.329000 60.993000 28.156000
378 2 48 9.650000 60.426998 26.732000
379 2 48 8.567000 59.646999 25.184999
380 2 48 8.680000 57.605000 25.382000
381 2 48 6.944000 56.993999 26.271000
382 2 48 7.379000 56.682999 28.243999
383 2 48 6.713000 58.327999 29.254999
384 2 48 8.346000 59.507999 29.593000
385 2 49 40.335999 43.726002 60.083000
386 2 49 39.463001 44.341999 58.366001
387 2 49 37.608002 45.046001 58.853001
388 2 49 36.286999 43.541000 58.389000
389 2 49 35.848999 42.570999 60.132999
390 2 49 36.974998 40.865002 60.147999
391 2 49 38.578999 41.234001 61.356998
392 2 49 40.152000 41.667999 60.127998
393 2 50 51.367001 43.314999 7.688000
394 2 50 52.035000 44.337002 6.075000
395 2 50 51.487999 46.289001 6.333000
396 2 50 49.810001 46.567001 5.180000
397 2 50 48.199001 46.453999 6.433000
398 2 50 47.410999 44.583000 6.197000
399 2 50 48.067001 43.469002 7.778000
400 2 50 49.637001 42.352001 7.096000
401 2 51 41.973000 17.924000 16.441999
402 2 51 42.984001 17.955000 14.691000
403 2 51 43.474998 16.021999 14.246000
404 2 51 45.442001 15.793000 14.794000
405 2 51 45.451000 14.868000 16.615999
406 2 51 45.778999 16.329000 18.007000
407 2 51 43.960999 16.780001 18.820999
408 2 51 43.318001 18.489000 17.906000
409 2 52 60.501999 43.564999 17.636999
410 2 52 60.938999 42.845001 15.798000
411 2 52 62.882999 42.216999 15.846000
412 2 52 63.987000 43.710999 14.967000
413 2 52 64.810997 44.813000 16.478001
414 2 52 63.660999 46.492001 16.667000
415 2 52 62.425999 46.178001 18.263000
416 2 52 60.612999 45.624001 17.500999
417 2 53 26.052000 20.052000 3.362000
418 2 53 24.606001 18.695999 2.959000
419 2 53 23.462000 19.468000 1.452000
420 2 53 21.782000 20.240000 2.350000
421 2 53 22.066000 22.256001 2.516000
422 2 53 22.621000 22.607000 4.452000
423 2 53 24.650000 22.841999 4.444000
424 2 53 25.448000 21.066000 5.059000
425 2 54 55.272999 8.506000 38.722000
426 2 54 55.219002 10.213000 39.805000
427 2 54 56.633999 10.041000 41.269001
428 2 54 55.623001 9.522000 42.980999
429 2 54 55.834000 7.502000 43.209999
430 2 54 54.091999 6.658000 42.551998
431 2 54 54.456001 5.963000 40.667000
432 2 54 53.691002 7.348000 39.374001
433 2 55 15.120000 40.189999 36.884998
434 2 55 14.294000 38.622002 37.859001
435 2 55 15.660000 37.984001 39.237999
436 2 55 16.576000 36.339001 38.415001
437 2 55 18.362000 36.971001 37.648998
438 2 55 18.090000 37.174999 35.633999
439 2 55 17.820999 39.167999 35.278999
440 2 55 15.809000 39.460999 35.077999
441 2 56 62.422001 47.250000 37.695000
442 2 56 63.544998 48.827000 37.112999
443 2 56 65.487999 48.380001 37.563999
444 2 56 65.910004 49.372002 39.313000
445 2 56 65.750000 48.008999 40.827000
446 2 56 63.929001 48.324001 41.702000
447 2 56 62.674000 46.889000 40.970001
448 2 56 61.564999 47.775002 39.500999
449 2 57 57.106998 6.020000 34.821999
450 2 57 56.627998 4.093000 34.441002
451 2 57 58.346001 3.001000 34.615002
452 2 57 59.016998 2.683000 32.699001
453 2 57 60.492001 4.052000 32.347000
454 2 57 59.646000 5.548000 31.242001
455 2 57 59.248001 7.077000 32.536999
456 2 57 57.258999 6.960000 32.987000
457 2 58 23.691000 0.944000 49.674000
458 2 58 22.469999 2.336000 50.485001
459 2 58 20.804001 2.434000 49.306000
460 2 58 21.051001 4.084000 48.105999
461 2 58 21.707001 3.410000 46.292000
462 2 58 23.726000 3.728000 46.249001
463 2 58 24.608000 1.932000 46.657001
464 2 58 25.143999 1.976000 48.626999
465 2 59 28.625999 18.672001 33.278000
466 2 59 28.844000 17.187000 34.633999
467 2 59 30.503000 16.122000 34.097000
468 2 59 29.815001 14.446000 33.126999
469 2 59 29.987000 14.803000 31.122000
470 2 59 28.120001 15.311000 30.461000
471 2 59 28.093000 17.347000 30.298000
472 2 59 27.152000 18.055000 31.966999
473 2 60 7.565000 41.134998 65.191002
474 2 60 7.340000 43.144001 65.141998
475 2 60 7.532000 43.721001 63.191002
476 2 60 9.447000 44.439999 62.993999
477 2 60 10.563000 42.945999 62.159000
478 2 60 11.606000 42.076000 63.686001
479 2 60 10.611000 40.360001 64.169998
480 2 60 9.498000 40.777000 65.831001
481 2 61 11.950000 53.785999 37.698002
482 2 61 10.752000 54.591999 39.113998
483 2 61 10.701000 56.608002 38.782001
484 2 61 12.006000 57.442001 40.132999
485 2 61 13.750000 57.806999 39.132000
486 2 61 15.031000 56.292999 39.625000
487 2 61 15.011000 54.979000 38.061001
488 2 61 13.777000 53.443001 38.602001
489 2 62 4.482000 58.519001 61.344002
490 2 62 5.573000 60.160999 60.893002
491 2 62 4.255000 61.695999 60.603001
492 2 62 4.050000 61.895000 58.568001
493 2 62 2.316000 60.948002 58.047001
494 2 62 2.854000 59.127998 57.286999
495 2 62 2.549000 57.761002 58.772999
496 2 62 4.375000 57.393002 59.613998
497 2 63 51.834000 45.553001 14.949000
498 2 63 52.574001 44.784000 13.232000
499 2 63 53.116001 42.853001 13.623000
500 2 63 55.153000 42.875999 13.895000
501 2 63 55.486000 42.869999 15.911000
502 2 63 55.922001 44.797001 16.434000
503 2 63 54.216999 45.584000 17.239000
504 2 63 53.341000 46.703999 15.773000
505 2 64 31.926001 50.464001 12.314000
506 2 64 31.448999 49.682999 10.510000
507 2 64 29.438000 49.944000 10.257000
508 2 64 28.566999 48.136002 10.703000
509 2 64 27.856001 48.271999 12.614000
510 2 64 29.214001 47.319000 13.808000
511 2 64 30.350000 48.776001 14.678000
512 2 64 32.094002 48.868999 13.617000
513 1 1 65.917999 30.334999 14.559000
514 1 2 49.745998 36.478001 33.317001
515 1 3 9.515000 27.271999 53.011002
516 1 4 2.727000 35.535000 18.438000
517 1 5 32.451000 10.239000 3.295000
518 1 6 7.033000 43.723000 12.253000
519 1 7 4.026000 9.704000 19.333000
520 1 8 37.235001 24.190001 17.674999
521 1 9 16.204000 19.618000 32.516998
522 1 10 20.837000 58.679001 23.865999
523 1 11 56.345001 20.493000 59.933998
524 1 12 39.845001 58.879002 62.882999
525 1 13 61.844002 3.359000 62.410999
526 1 14 48.209999 62.311001 61.549999
527 1 15 11.434000 8.238000 5.288000
528 1 16 28.445999 60.807999 10.544000
529 1 17 43.651001 62.669998 20.702999
530 1 18 29.139999 46.063999 33.007999
531 1 19 0.546000 8.272000 1.720000
532 1 20 21.985001 58.172001 14.896000
533 1 21 15.088000 26.226000 57.606998
534 1 22 14.094000 5.411000 49.952000
535 1 23 49.771999 43.698002 24.737000
536 1 24 26.566000 11.059000 63.328999
537 1 25 56.066002 64.032997 61.320000
538 1 26 43.835999 9.603000 42.326000
539 1 27 38.750000 47.398998 4.296000
540 1 28 39.716999 4.246000 17.055000
541 1 29 51.544998 16.393999 15.152000
542 1 30 54.986000 63.540001 25.641001
543 1 31 16.898001 40.771999 19.306999
544 1 32 12.686000 28.601999 15.679000
545 1 33 45.744999 13.829000 23.094999
546 1 34 7.164000 61.382000 3.856000
547 1 35 61.707001 57.116001 60.055000
548 1 36 22.629999 15.116000 11.951000
549 1 37 41.826000 15.784000 25.259001
550 1 38 11.723000 14.501000 11.501000
551 1 39 57.936001 33.004002 1.415000
552 1 40 62.271999 59.478001 60.547001
553 1 41 50.672001 65.045998 57.916000
554 1 42 25.695000 64.188004 32.205002
555 1 43 55.793999 49.808998 49.173000
556 1 44 18.281000 32.523998 31.228001
557 1 45 54.890999 37.689999 8.774000
558 1 46 27.900000 47.398998 48.209000
559 1 47 65.886002 40.508999 37.722000
560 1 48 23.554001 54.772999 24.106001
561 1 49 21.990999 62.558998 54.073002
562 1 50 61.944000 0.003000 2.355000
563 1 51 36.264000 14.801000 43.023998
564 1 52 45.743000 21.628000 18.579000
565 1 53 64.607002 54.959999 43.054001
566 1 54 39.106998 6.958000 37.248001
567 1 55 22.007000 13.768000 23.006001
568 1 56 39.710999 11.488000 33.734001
569 1 57 41.030998 31.823000 2.190000
570 1 58 11.345000 10.085000 31.548000
571 1 59 7.662000 43.970001 41.008999
572 1 60 2.288000 28.473000 50.869999
573 1 61 12.825000 49.578999 65.345001
574 1 62 15.274000 61.271999 38.784000
575 1 63 22.743000 59.660000 6.138000
576 1 64 40.980000 39.268002 17.975000
     
